<VTKFile type="UnstructuredGrid" version="1.0" byte_order="LittleEndian" header_type="UInt64">
<UnstructuredGrid>
<Piece NumberOfPoints="20184" NumberOfCells="13110">
<PointData>
</PointData>
<CellData Scalars="Temperature (C)">
<DataArray type="Float32" Name="Temperature (C)" format="ascii" RangeMin="22.9522" RangeMax="28.6305">
23.2266 23.2348 23.2506 23.3087 23.2491 23.2541
23.263 23.3157 23.3556 23.3499 23.3603 23.3512
23.2198 23.2258 23.2406 23.2926 23.2392 23.2434
23.2542 23.3012 23.3372 23.3328 23.3428 23.3352
23.3167 23.2906 23.3173 23.2946 23.3188 23.4436
23.329 23.4578 23.3022 23.2792 23.3039 23.2835
23.3099 23.4331 23.3193 23.4457 23.6506 23.9113
23.6638 23.9221 24.2109 24.5395 24.2199 24.5478
23.6364 23.8936 23.6484 23.9035 24.1897 24.5149
24.1981 24.5228 24.8871 25.2426 24.8956 25.2518
25.5555 25.821 25.5654 25.8316 24.8592 25.2112
24.8673 25.2201 25.5213 25.7846 25.531 25.7949
26.0707 26.3138 26.0817 26.3249 26.5422 26.7412
26.5531 26.7516 26.0323 26.2736 26.0431 26.2847
26.5005 26.6984 26.5115 26.709 26.9061 27.0416
26.9159 27.0505 27.1543 27.2157 27.1624 27.2232
26.8624 26.9973 26.8725 27.0067 27.1097 27.1708
27.1182 27.1787 27.2563 27.324 27.2634 27.3305
27.39 27.419 27.4297 27.456 27.3951 27.423
27.4333 27.4586 27.2114 27.2791 27.219 27.2861
27.3453 27.3743 27.3854 27.4118 27.3508 27.3786
27.3894 27.4147 27.4836 27.4982 27.4844 27.4974
27.5054 27.5073 27.5032 27.504 27.4398 27.4549
27.4409 27.4541 27.4624 27.4647 27.4601 27.4609
27.5029 27.4946 27.4998 27.4921 27.4853 27.4766
27.4833 27.4748 27.4605 27.4522 27.4565 27.4489
27.4428 27.4342 27.44 27.4315 27.4675 27.459
27.4657 27.4574 27.4532 27.4505 27.4519 27.4494
27.4252 27.4169 27.4225 27.4145 27.4116 27.409
27.4092 27.4066 27.4512 27.4571 27.4504 27.4571
27.4695 27.4909 27.4714 27.494 27.4092 27.4147
27.4074 27.4139 27.427 27.4483 27.4279 27.4504
27.5272 27.5856 27.5287 27.5879 27.6679 27.7787
27.6713 27.7829 27.4844 27.5429 27.4847 27.5439
27.6253 27.7363 27.6274 27.7391 27.921 28.0946
27.9257 28.0993 28.2922 28.4946 28.297 28.5001
27.8788 28.0524 27.8821 28.0558 28.2497 28.451
28.2532 28.4556 28.6212 28.6305 28.5766 28.5828
23.3581 23.3632 23.3731 23.4146 23.5143 23.5195
23.5307 23.5649 23.4431 23.4229 23.5806 23.5548
23.7846 23.7901 23.8032 23.8363 24.0657 24.0711
24.0847 24.1174 23.8543 23.8442 24.1415 24.1477
23.3468 23.3509 23.3614 23.3994 23.4998 23.5039
23.5143 23.5457 23.4266 23.409 23.5613 23.5387
23.7659 23.7703 23.7817 23.812 24.0433 24.0478
24.0594 24.0896 23.8297 23.8211 24.1132 24.12
23.3855 23.3636 23.5189 23.5001 23.4007 23.5297
23.5385 23.6565 23.8307 23.8338 24.154 24.1745
23.8809 23.9817 24.2279 24.3198 23.3745 23.355
23.5057 23.4894 23.3931 23.5187 23.5287 23.6448
23.8088 23.8125 24.1265 24.147 23.8594 23.9595
24.1999 24.2912 24.3263 24.3313 24.3441 24.3754
24.5613 24.5656 24.577 24.6053 24.4039 24.4214
24.6343 24.6567 24.713 24.7169 24.7273 24.7528
24.8062 24.8097 24.8192 24.8424 24.7796 24.8013
24.8668 24.8869 24.301 24.3052 24.3162 24.3454
24.5336 24.5374 24.5473 24.5739 24.3732 24.3907
24.6023 24.6244 24.6841 24.6875 24.6965 24.7205
24.7766 24.7797 24.7879 24.8098 24.7467 24.7682
24.8337 24.8535 24.4401 24.4707 24.6805 24.714
24.5264 24.6119 24.767 24.8446 24.8239 24.8545
24.9071 24.9342 24.9014 24.9709 24.9757 25.0391
24.4092 24.4395 24.6479 24.681 24.4946 24.5795
24.7334 24.8104 24.7904 24.8206 24.8733 24.9
24.867 24.936 24.9411 25.0041 23.7285 23.9749
23.8394 24.0677 24.2616 24.5807 24.3375 24.6423
24.1341 24.33 24.4524 24.6227 24.5661 24.8369
24.8289 25.0665 23.7139 23.9574 23.8249 24.0511
24.2411 24.557 24.3184 24.6201 24.1109 24.3059
24.4231 24.5927 24.5407 24.8095 24.798 25.0344
24.9214 25.2722 24.9707 25.3117 25.5821 25.8453
25.6144 25.872 25.1325 25.4431 25.3277 25.6038
25.7217 25.9606 25.8538 26.0696 24.8944 25.2419
24.9452 25.2827 25.549 25.8099 25.5824 25.8377
25.1031 25.4111 25.2941 25.5686 25.6875 25.9245
25.817 26.0315 24.7305 24.8812 24.9505 25.0841
25.0629 25.2723 25.2449 25.4302 25.067 25.1889
25.1285 25.2428 25.336 25.506 25.3816 25.5423
24.6974 24.8475 24.9157 25.0487 25.0285 25.237
25.2088 25.3933 25.0314 25.1526 25.0928 25.2065
25.2991 25.4684 25.3446 25.5047 25.5033 25.7485
25.6353 25.8542 25.9721 26.1666 26.0554 26.2319
25.695 25.8977 25.7216 25.9148 26.0856 26.2515
26.0949 26.2548 25.4669 25.711 25.5976 25.8156
25.9335 26.127 26.0159 26.1916 25.6567 25.8586
25.6834 25.8758 26.0457 26.2109 26.0551 26.2144
24.9349 24.9377 24.9456 24.9649 25.0469 25.0492
25.0558 25.0715 24.9847 25.0005 25.0854 25.0945
25.1348 25.1367 25.1423 25.155 25.2314 25.2329
25.2375 25.2471 25.164 25.1671 25.2509 25.2474
24.9043 24.9069 24.9138 24.9319 25.0156 25.0178
25.0236 25.0383 24.9514 24.9669 25.052 25.0608
25.1031 25.1049 25.1098 25.1216 25.1992 25.2007
25.2047 25.2136 25.1305 25.1335 25.2173 25.2137
25.015 25.0347 25.1005 25.1101 25.0664 25.1199
25.1299 25.1723 25.1656 25.1665 25.2375 25.2287
25.1761 25.2094 25.2272 25.2509 24.9811 25.0006
25.0668 25.0762 25.0321 25.0852 25.0961 25.1382
25.1321 25.133 25.2042 25.1955 25.143 25.176
25.1948 25.2183 25.3127 25.3139 25.3179 25.384
25.3851 25.3885 25.3254 25.3946 25.464 25.4649
25.468 25.5501 25.5509 25.5538 25.4729 25.558
25.3255 25.3921 25.3172 25.3805 25.4685 25.5529
25.4546 25.538 25.6558 25.6566 25.6592 25.6632
25.7437 25.7445 25.7472 25.7515 25.6585 25.6443
25.7481 25.7361 25.2801 25.2814 25.2849 25.3511
25.3523 25.3553 25.2918 25.3608 25.4308 25.4318
25.4344 25.5164 25.5174 25.5198 25.4388 25.5236
25.2917 25.3582 25.2835 25.3468 25.4344 25.5184
25.4207 25.5038 25.6215 25.6225 25.6247 25.6283
25.709 25.71 25.7124 25.7162 25.6235 25.6095
25.7128 25.701 25.3014 25.3607 25.2856 25.3402
25.4319 25.5143 25.408 25.4891 25.2763 25.3257
25.2931 25.3376 25.3897 25.4694 25.3978 25.4753
25.6215 25.5972 25.7162 25.6952 25.5786 25.5839
25.6801 25.6871 25.2682 25.3276 25.2527 25.3075
25.3987 25.4808 25.3753 25.4561 25.2443 25.294
25.261 25.3058 25.3581 25.4375 25.3662 25.4434
25.5874 25.5637 25.6818 25.6614 25.546 25.5514
25.6471 25.6541 25.199 25.3026 25.2411 25.3347
25.4297 25.5779 25.4516 25.5892 25.2699 25.3557
25.3026 25.3803 25.4648 25.5945 25.4815 25.6032
25.1636 25.2666 25.2064 25.2994 25.3932 25.5408
25.4158 25.5528 25.236 25.3212 25.2695 25.3466
25.4298 25.559 25.4474 25.5685 25.7442 25.9248
25.7449 25.9154 26.0947 26.2469 26.0773 26.2236
25.7423 25.9051 25.7428 25.8976 26.061 26.2027
26.047 26.1837 25.7065 25.8864 25.708 25.8777
26.0556 26.2071 26.039 26.1846 25.7062 25.8683
25.7076 25.8618 26.0235 26.1646 26.0105 26.1464
25.3384 25.3782 25.41 25.4453 25.4344 25.5089
25.4971 25.568 25.5054 25.5359 25.6209 25.6464
25.583 25.6494 25.6883 25.7494 25.6153 25.6709
25.7184 25.7719 25.7474 25.8413 25.8449 25.9338
25.3059 25.3461 25.3771 25.4127 25.4024 25.4767
25.4647 25.5353 25.4719 25.5028 25.5869 25.6127
25.55 25.6162 25.6548 25.7157 25.5826 25.6377
25.6851 25.7383 25.7137 25.807 25.8107 25.8991
25.754 25.7742 25.9024 25.9169 25.8102 25.8653
25.9466 25.9945 26.0461 26.0554 26.178 26.1828
26.0789 26.1197 26.2006 26.2348 25.9501 26.0705
26.0388 26.1517 26.1864 26.2925 26.2592 26.3572
25.7195 25.74 25.8672 25.8821 25.7762 25.831
25.9118 25.9596 26.0102 26.0199 26.1414 26.1465
26.0434 26.0841 26.1645 26.1985 25.9153 26.0351
26.0034 26.1157 26.1503 26.2558 26.2226 26.3199
26.0926 26.3327 26.1143 26.3497 26.5575 26.7528
26.5699 26.7609 26.1867 26.4078 26.2755 26.4787
26.616 26.7977 26.672 26.8423 26.0553 26.2938
26.078 26.3116 26.5173 26.7117 26.5305 26.7207
26.149 26.3687 26.2364 26.4386 26.5759 26.7568
26.6311 26.8009 26.9141 27.046 26.9187 27.0475
27.1555 27.2147 27.1543 27.2119 26.9484 27.0718
26.9847 27.1022 27.1742 27.2294 27.2001 27.2531
26.8724 27.004 26.8778 27.0063 27.1132 27.1722
27.1128 27.1703 26.907 27.0301 26.9429 27.0602
27.1323 27.1874 27.158 27.2108 26.3538 26.5403
26.4036 26.5765 26.7199 26.8801 26.7454 26.8981
26.4144 26.58 26.4127 26.5744 26.7435 26.8929
26.7351 26.8831 26.3134 26.4992 26.3626 26.535
26.6782 26.838 26.7033 26.8555 26.3732 26.5382
26.3717 26.5327 26.7011 26.85 26.6929 26.8404
27.0156 27.1284 27.0289 27.1392 27.2233 27.275
27.2331 27.2849 27.0223 27.1324 27.0121 27.1227
27.227 27.2798 27.2183 27.272 26.9731 27.0857
26.986 27.0961 27.1804 27.232 27.1897 27.2413
26.979 27.0889 26.969 27.0792 27.1833 27.2358
27.1745 27.2279 27.254 27.3194 27.25 27.3133
27.3814 27.4076 27.4173 27.4412 27.3725 27.3971
27.4061 27.4283 27.2659 27.3262 27.2882 27.346
27.3821 27.4047 27.4129 27.433 27.3997 27.4213
27.4291 27.4483 27.2116 27.277 27.2086 27.2718
27.3392 27.3653 27.3755 27.3995 27.3313 27.3559
27.3654 27.3876 27.224 27.2844 27.246 27.3039
27.3405 27.363 27.3717 27.3917 27.3578 27.3792
27.3875 27.4065 27.4649 27.4757 27.4493 27.458
27.4798 27.4795 27.4605 27.4591 27.451 27.4577
27.4656 27.4723 27.4591 27.4568 27.4738 27.4719
27.4233 27.4343 27.4087 27.4174 27.4385 27.4381
27.4198 27.4183 27.4097 27.4164 27.4237 27.4304
27.4177 27.4155 27.4319 27.43 27.3093 27.3661
27.3194 27.3772 27.4198 27.4419 27.45 27.4698
27.4333 27.4572 27.466 27.4877 27.3152 27.3749
27.3081 27.3694 27.4339 27.4597 27.4694 27.4933
27.4308 27.4582 27.4684 27.4938 27.2664 27.3232
27.2759 27.3336 27.3769 27.3988 27.4073 27.4269
27.3896 27.4133 27.4224 27.444 27.2712 27.3308
27.2641 27.3253 27.3898 27.4153 27.4253 27.449
27.3865 27.4135 27.4241 27.4494 27.4886 27.4967
27.5096 27.5203 27.4994 27.4985 27.5249 27.5259
27.5183 27.5314 27.5212 27.5362 27.5381 27.5409
27.5443 27.5486 27.4456 27.4537 27.4658 27.4764
27.4564 27.4556 27.4811 27.4821 27.474 27.4871
27.4766 27.4916 27.4937 27.4966 27.4997 27.504
26.3987 26.5556 26.3708 26.5243 26.7133 26.8601
26.6801 26.8262 26.3464 26.4971 26.323 26.47
26.6512 26.7965 26.6211 26.7645 26.3583 26.5145
26.3311 26.4839 26.6716 26.8177 26.6388 26.7843
26.3075 26.4575 26.2849 26.4311 26.6106 26.7552
26.5813 26.7238 26.9893 27.1011 26.9559 27.069
27.1987 27.2541 27.1684 27.2254 26.9264 27.0401
26.8933 27.0066 27.1407 27.1988 27.1074 27.1659
26.9464 27.0577 26.9134 27.0259 27.1549 27.21
27.1248 27.1814 26.8843 26.9974 26.8517 26.9643
27.0974 27.155 27.0644 27.1224 26.3129 26.3132
26.4557 26.4516 26.3253 26.3525 26.4578 26.4776
26.603 26.5946 26.7433 26.731 26.5947 26.6068
26.7256 26.7304 26.4008 26.5157 26.4568 26.562
26.6343 26.7477 26.6704 26.774 26.2754 26.2761
26.4174 26.4136 26.2884 26.3155 26.4199 26.4397
26.5637 26.5555 26.703 26.691 26.5559 26.568
26.6858 26.6907 26.3635 26.4776 26.4189 26.5234
26.5953 26.7079 26.6311 26.7339 26.8696 26.854
26.9811 26.9629 26.8439 26.8422 26.9487 26.9414
27.0806 27.0603 27.1385 27.1171 27.0426 27.0304
27.0974 27.0823 26.8503 26.9413 26.8676 26.9506
27.023 27.0707 27.025 27.0683 26.8284 26.8132
26.9392 26.9213 26.8032 26.8017 26.9073 26.9002
27.0379 27.018 27.0954 27.0743 27.0005 26.9884
27.0548 27.0399 26.8098 26.9001 26.8268 26.9092
26.9811 27.0284 26.983 27.0258 27.2915 27.3554
27.264 27.3304 27.4207 27.4506 27.4618 27.4896
27.3992 27.4312 27.4434 27.4734 27.2381 27.3063
27.2056 27.2748 27.3776 27.4112 27.424 27.4557
27.3477 27.3825 27.3957 27.4287 27.2473 27.3111
27.2199 27.2861 27.3761 27.4057 27.4172 27.4448
27.3545 27.3862 27.3986 27.4285 27.1943 27.2621
27.162 27.2308 27.333 27.3662 27.3793 27.4107
27.3032 27.3376 27.3511 27.3837 27.5207 27.5387
27.5079 27.5287 27.5491 27.5557 27.5415 27.5503
27.4927 27.5156 27.4679 27.4926 27.5301 27.5406
27.5087 27.5208 27.4757 27.4935 27.4627 27.4834
27.504 27.5106 27.496 27.5048 27.4474 27.4702
27.4226 27.4471 27.4845 27.495 27.463 27.475
27.1779 27.1559 27.2468 27.2236 27.1348 27.1177
27.2003 27.1797 27.3197 27.3546 27.2954 27.33
27.368 27.4014 27.3432 27.3765 27.2697 27.3033
27.2456 27.2774 27.3162 27.3486 27.2897 27.3204
27.1032 27.16 27.0979 27.1495 27.2202 27.2492
27.2603 27.2884 27.2038 27.2297 27.2396 27.265
27.1347 27.1129 27.2031 27.1801 27.0921 27.0752
27.157 27.1367 27.2754 27.3099 27.2514 27.2855
27.3235 27.3566 27.2991 27.3319 27.226 27.2592
27.2021 27.2335 27.2723 27.3043 27.246 27.2763
27.0608 27.1172 27.0553 27.1065 27.1769 27.2055
27.2169 27.2446 27.1604 27.1859 27.1962 27.2212
27.4414 27.4165 27.467 27.4424 27.3878 27.3576
27.4132 27.3818 27.4839 27.4595 27.4969 27.4728
27.4301 27.3978 27.4433 27.4103 27.3223 27.3441
27.2952 27.3143 27.3584 27.3694 27.3265 27.3356
27.3963 27.3715 27.4216 27.3971 27.3431 27.3131
27.3681 27.337 27.4383 27.414 27.4511 27.4272
27.3848 27.3528 27.3979 27.3652 27.2781 27.2996
27.251 27.2698 27.3138 27.3246 27.2819 27.2908
25.8031 25.8038 25.8065 25.8111 25.8918 25.8926
25.8954 25.9005 25.809 25.7987 25.9005 25.8934
25.9696 25.9704 25.9734 25.9793 26.0206 26.0215
26.0246 26.031 25.9817 25.9782 26.035 26.034
25.768 25.7689 25.7712 25.7754 25.8564 25.8574
25.8598 25.8645 25.7732 25.7632 25.8645 25.8576
25.9338 25.9348 25.9375 25.9429 25.9846 25.9856
25.9884 25.9944 25.9452 25.9418 25.9983 25.9974
25.7813 25.7631 25.8803 25.8669 25.7509 25.7595
25.8595 25.8711 25.9697 25.9616 26.0289 26.0245
25.9597 25.9747 26.0262 26.0435 25.7464 25.7287
25.845 25.832 25.7172 25.7259 25.8253 25.8369
25.9338 25.9261 25.9926 25.9885 25.9247 25.9397
25.9907 26.008 26.0682 26.0692 26.0724 26.0792
26.1248 26.1257 26.129 26.1362 26.0848 26.0862
26.1437 26.1479 26.1825 26.1834 26.1868 26.1944
26.2265 26.2275 26.2309 26.2388 26.2037 26.2106
26.2492 26.2577 26.032 26.0331 26.036 26.0424
26.0882 26.0894 26.0923 26.0991 26.0479 26.0493
26.1064 26.1107 26.1456 26.1468 26.1498 26.157
26.1894 26.1906 26.1936 26.2011 26.1661 26.1729
26.2112 26.2197 26.0842 26.0833 26.1496 26.1528
26.0884 26.1079 26.1619 26.1839 26.2157 26.2228
26.2651 26.2746 26.2355 26.2594 26.2893 26.3141
26.0476 26.047 26.1126 26.116 26.0525 26.0719
26.1254 26.1472 26.1783 26.1855 26.2272 26.2368
26.1984 26.2222 26.2517 26.2763 25.791 25.8436
25.9035 25.9548 25.9143 25.9994 26.0223 26.1021
26.0082 26.0585 26.0778 26.1273 26.123 26.1979
26.1898 26.2615 25.7572 25.8093 25.869 25.9199
25.8795 25.9641 25.9869 26.0662 25.9729 26.0227
26.042 26.0911 26.0868 26.1613 26.1531 26.2243
26.1 26.2081 26.1936 26.2936 26.31 26.4025
26.3872 26.4715 26.2821 26.3742 26.3394 26.4259
26.4597 26.5363 26.5059 26.5773 26.0643 26.1718
26.1572 26.2566 26.273 26.365 26.3496 26.4335
26.2448 26.3364 26.3018 26.3878 26.4214 26.4976
26.4673 26.5383 26.1429 26.1916 26.2194 26.2669
26.252 26.321 26.3246 26.3897 26.2951 26.3407
26.3491 26.3925 26.3947 26.4548 26.4427 26.4978
26.1066 26.1549 26.1824 26.2296 26.2149 26.2834
26.2868 26.3515 26.2575 26.3028 26.311 26.354
26.3563 26.416 26.4038 26.4586 26.3947 26.4755
26.4601 26.5345 26.5502 26.6165 26.6026 26.6627
26.5191 26.5861 26.5562 26.6165 26.6468 26.7001
26.6706 26.7179 26.3565 26.4368 26.4214 26.4953
26.511 26.5768 26.563 26.6227 26.4799 26.5465
26.5166 26.5764 26.6068 26.6596 26.6302 26.6772
26.2563 26.2573 26.2608 26.2688 26.2676 26.2686
26.2721 26.2801 26.2796 26.2889 26.2908 26.3
26.2719 26.2729 26.2765 26.2844 26.2741 26.275
26.2784 26.286 26.2948 26.3038 26.2959 26.3041
26.219 26.2202 26.2232 26.2308 26.2301 26.2312
26.2343 26.2419 26.2413 26.2506 26.2523 26.2614
26.2344 26.2355 26.2387 26.2461 26.2364 26.2375
26.2404 26.2476 26.2563 26.2651 26.2571 26.2653
26.2973 26.3078 26.3083 26.3188 26.3232 26.3478
26.3337 26.3575 26.3118 26.3219 26.3113 26.3206
26.3363 26.3594 26.3339 26.3556 26.259 26.2696
26.2698 26.2803 26.2852 26.3096 26.2954 26.319
26.2732 26.2834 26.2726 26.2819 26.298 26.3208
26.2954 26.3169 26.266 26.2669 26.2703 26.2776
26.2536 26.2546 26.2578 26.2646 26.2865 26.2935
26.2723 26.2778 26.2268 26.2277 26.2307 26.2368
26.192 26.1928 26.1957 26.201 26.2425 26.2457
26.2046 26.2051 26.2281 26.2292 26.2322 26.239
26.2157 26.2168 26.2196 26.2259 26.2476 26.2545
26.2333 26.2388 26.1886 26.1897 26.1923 26.198
26.1537 26.1547 26.1572 26.1621 26.2035 26.2067
26.1655 26.166 26.2994 26.3071 26.2821 26.2881
26.3187 26.3386 26.2976 26.3154 26.2473 26.2502
26.2036 26.2031 26.2564 26.2711 26.2056 26.2168
26.2606 26.2683 26.2432 26.2492 26.2801 26.2997
26.2589 26.2765 26.2083 26.2113 26.1646 26.1643
26.2177 26.2322 26.167 26.178 26.3814 26.4222
26.3897 26.4285 26.4688 26.5193 26.4724 26.5198
26.3905 26.4279 26.385 26.4202 26.4701 26.5155
26.4599 26.5026 26.3429 26.3834 26.3509 26.3894
26.4296 26.4797 26.433 26.48 26.3516 26.3887
26.3459 26.3809 26.4306 26.4757 26.4203 26.4626
26.5724 26.6268 26.5694 26.6201 26.6754 26.7177
26.6653 26.7046 26.563 26.6114 26.5471 26.5924
26.6546 26.6921 26.6328 26.668 26.5325 26.5864
26.5293 26.5796 26.6347 26.6767 26.6244 26.6635
26.5228 26.5709 26.5068 26.5518 26.6137 26.651
26.5919 26.6268 26.3659 26.399 26.3406 26.3713
26.4363 26.4764 26.4063 26.4441 26.2932 26.3209
26.2356 26.2603 26.3529 26.3878 26.2895 26.3218
26.3268 26.3596 26.3014 26.3319 26.3966 26.4364
26.3666 26.4041 26.254 26.2815 26.1966 26.2211
26.3133 26.3479 26.25 26.2821 26.5184 26.5611
26.4836 26.5241 26.5994 26.6327 26.5604 26.5921
26.4247 26.4627 26.3564 26.3924 26.4971 26.5273
26.4254 26.4545 26.478 26.5205 26.4433 26.4835
26.5585 26.5915 26.5195 26.551 26.3845 26.4222
26.3164 26.3521 26.4564 26.4863 26.3848 26.4138
26.4962 26.595 26.5565 26.6458 26.6966 26.7935
26.7372 26.8242 26.6131 26.6934 26.6486 26.7227
26.7752 26.8529 26.7981 26.8695 26.4581 26.5562
26.5179 26.6066 26.6571 26.7533 26.6974 26.7838
26.5739 26.6536 26.609 26.6827 26.7349 26.812
26.7575 26.8284 26.881 26.9586 26.9027 26.9722
27.0281 27.0684 27.0343 27.0703 26.9229 26.9846
26.9337 26.9903 27.0397 27.0714 27.0406 27.0695
26.8402 26.9172 26.8617 26.9307 26.9861 27.026
26.9923 27.0279 26.8814 26.9427 26.8921 26.9483
26.9973 27.0287 26.9982 27.0268 26.6824 26.7507
26.7221 26.7834 26.82 26.8854 26.8452 26.9035
26.7523 26.806 26.7641 26.8114 26.8599 26.9107
26.8588 26.9034 26.6423 26.7102 26.6817 26.7426
26.7789 26.8439 26.804 26.8619 26.7115 26.7648
26.723 26.77 26.8184 26.8688 26.8171 26.8614
26.9442 26.9959 26.9558 27.0017 27.0418 27.0681
27.0424 27.0655 26.9561 26.996 26.9433 26.9784
27.0312 27.0511 27.0093 27.0268 26.9022 26.9536
26.9138 26.9594 26.9991 27.025 26.9996 27.0225
26.9139 26.9534 26.901 26.9358 26.9883 27.0079
26.9664 26.9835 27.096 27.144 27.0948 27.1374
27.1942 27.2181 27.2273 27.2507 27.1816 27.2025
27.2104 27.2308 27.0931 27.1305 27.0892 27.1232
27.169 27.1867 27.1936 27.2112 27.1578 27.1737
27.1798 27.1954 27.0535 27.1012 27.0524 27.0946
27.151 27.1745 27.1839 27.207 27.1385 27.1589
27.1672 27.1873 27.0503 27.0875 27.0465 27.0802
27.1257 27.143 27.1501 27.1675 27.1146 27.13
27.1364 27.1518 27.2782 27.2954 27.2544 27.2687
27.3062 27.314 27.2773 27.2829 27.231 27.2425
27.2127 27.2224 27.249 27.2525 27.2274 27.2296
27.2342 27.2512 27.2106 27.2246 27.2618 27.2694
27.2331 27.2385 27.1871 27.1983 27.1689 27.1783
27.2047 27.2081 27.1833 27.1853 27.086 27.1167
27.0813 27.1082 27.1478 27.1619 27.1672 27.1811
27.1352 27.1471 27.1516 27.1636 27.0647 27.0878
27.0387 27.059 27.1107 27.1205 27.1243 27.1343
27.0788 27.0872 27.0904 27.0991 27.0429 27.0734
27.0382 27.065 27.1043 27.118 27.1236 27.1373
27.0918 27.1033 27.1082 27.1199 27.0216 27.0445
26.9955 27.0156 27.0672 27.0767 27.0807 27.0906
27.0353 27.0433 27.0468 27.0553 27.1961 27.2041
27.1759 27.182 27.2078 27.2088 27.1843 27.1839
27.1442 27.1485 27.1074 27.1106 27.1495 27.1478
27.1107 27.1084 27.1521 27.1598 27.132 27.1379
27.1635 27.1643 27.1401 27.1396 27.1002 27.1044
27.0634 27.0664 27.1053 27.1035 27.0665 27.0641
26.759 26.8011 26.7429 26.7821 26.8434 26.8831
26.8214 26.8585 26.7287 26.766 26.7023 26.7374
26.8037 26.8393 26.7729 26.8065 26.7177 26.7595
26.7015 26.7403 26.8015 26.841 26.7794 26.8162
26.6873 26.7244 26.6608 26.6957 26.7617 26.797
26.7309 26.7643 26.9189 26.9503 26.8919 26.9214
26.9781 26.9937 26.9475 26.9622 26.8714 26.8999
26.8371 26.8643 26.9251 26.9393 26.8885 26.9023
26.8764 26.9076 26.8493 26.8786 26.935 26.9504
26.9044 26.9188 26.8289 26.8571 26.7946 26.8215
26.882 26.896 26.8455 26.8591 26.6653 26.6988
26.6232 26.6554 26.7328 26.7652 26.6881 26.7196
26.5572 26.5882 26.4836 26.5141 26.6201 26.6511
26.5458 26.5769 26.6239 26.6571 26.5819 26.6138
26.6908 26.723 26.6463 26.6775 26.516 26.5467
26.4426 26.4729 26.5784 26.6091 26.5044 26.5352
26.7948 26.8213 26.7485 26.7746 26.8451 26.8587
26.7982 26.8119 26.6798 26.706 26.606 26.6328
26.7299 26.744 26.6577 26.6725 26.7523 26.7786
26.7062 26.732 26.8021 26.8155 26.7554 26.7688
26.6376 26.6635 26.564 26.5906 26.6872 26.701
26.6152 26.6297 27.0044 27.0227 26.9724 26.9899
27.0406 27.0481 27.0509 27.0589 27.007 27.014
27.0168 27.0247 26.9493 26.9663 26.9119 26.9285
26.9831 26.99 26.9928 27.0007 26.9451 26.9522
26.955 26.9628 26.9612 26.9793 26.9291 26.9464
26.997 27.0041 27.0073 27.0151 26.9633 26.97
26.973 26.9808 26.906 26.9229 26.8687 26.8852
26.9395 26.946 26.9491 26.9569 26.9016 26.9083
26.9114 26.9191 27.0664 27.0691 27.0321 27.0348
27.0689 27.0663 27.0347 27.0322 27.0081 27.011
26.9706 26.9738 27.011 27.0087 26.9742 26.9722
27.0224 27.0249 26.988 26.9905 27.0247 27.022
26.9904 26.9878 26.9641 26.9668 26.9266 26.9297
26.9668 26.9643 26.93 26.928 26.8683 26.8849
26.8215 26.8383 26.9018 26.9091 26.912 26.9203
26.8557 26.8635 26.8666 26.8753 26.7539 26.7714
26.6829 26.7017 26.7902 26.7989 26.8024 26.812
26.7222 26.732 26.736 26.7468 26.8251 26.8416
26.7784 26.7951 26.8583 26.8652 26.8684 26.8765
26.8123 26.8197 26.8232 26.8317 26.711 26.7284
26.6402 26.6588 26.7469 26.7553 26.7591 26.7685
26.6791 26.6886 26.6928 26.7035 26.9287 26.9326
26.8846 26.8893 26.9337 26.9323 26.8911 26.8904
26.8229 26.829 26.7596 26.7674 26.8319 26.8325
26.7717 26.7737 26.8847 26.8885 26.8408 26.8453
26.8894 26.888 26.8469 26.8462 26.7792 26.7851
26.7161 26.7236 26.7879 26.7884 26.7278 26.7298
27.4749 27.4673 27.4539 27.4463 27.4587 27.4503
27.4376 27.429 27.4511 27.443 27.4664 27.4584
27.4339 27.4246 27.4491 27.4396 27.4333 27.4257
27.4131 27.4054 27.4171 27.4087 27.3968 27.3882
27.4098 27.4018 27.4246 27.4166 27.3927 27.3835
27.4075 27.398 27.4411 27.4325 27.4195 27.4101
27.4264 27.4233 27.4029 27.3988 27.414 27.4031
27.4284 27.4163 27.394 27.3881 27.4058 27.3982
27.3996 27.3912 27.3788 27.3695 27.3852 27.3819
27.3623 27.3581 27.3731 27.3622 27.3869 27.3749
27.3532 27.3472 27.3645 27.3569 27.494 27.4867
27.5231 27.5172 27.4779 27.4685 27.5094 27.5006
27.5399 27.5355 27.5489 27.5456 27.5288 27.5208
27.5398 27.5326 27.4512 27.444 27.4794 27.4736
27.4352 27.4259 27.4658 27.4571 27.4956 27.4913
27.5043 27.5011 27.4846 27.4768 27.4953 27.4882
27.4571 27.4445 27.4897 27.477 27.433 27.4241
27.4651 27.4552 27.5106 27.4984 27.523 27.5111
27.4865 27.4759 27.4993 27.4882 27.4146 27.4021
27.4463 27.4337 27.3907 27.3818 27.4219 27.412
27.4666 27.4545 27.4786 27.4669 27.4426 27.4321
27.4551 27.4441 27.4242 27.4311 27.3991 27.4058
27.4455 27.4656 27.4196 27.438 27.3867 27.3917
27.395 27.398 27.4039 27.4201 27.4078 27.4214
27.3826 27.3893 27.3583 27.3648 27.4035 27.4236
27.3786 27.397 27.3458 27.3508 27.3537 27.3567
27.363 27.3792 27.3666 27.3802 27.4848 27.542
27.4523 27.508 27.6255 27.737 27.591 27.7019
27.4316 27.485 27.4298 27.4798 27.5656 27.674
27.5569 27.6616 27.4422 27.4994 27.4111 27.4668
27.5829 27.6946 27.5498 27.6609 27.3907 27.4441
27.3886 27.4387 27.5248 27.6334 27.5159 27.6208
27.4192 27.4199 27.4486 27.4469 27.4269 27.4371
27.4508 27.4573 27.4676 27.4642 27.4779 27.4736
27.466 27.4706 27.4743 27.4787 27.377 27.3777
27.4054 27.4038 27.3848 27.3951 27.4078 27.4144
27.4239 27.4206 27.434 27.4298 27.4225 27.4273
27.4305 27.4351 27.4416 27.4874 27.4577 27.4986
27.5599 27.6602 27.5659 27.6609 27.4704 27.5081
27.4808 27.5171 27.5714 27.6622 27.5778 27.6658
27.3996 27.4455 27.4149 27.4559 27.5182 27.6186
27.5234 27.6186 27.4271 27.465 27.4377 27.4742
27.5285 27.6195 27.5351 27.6233 27.5581 27.5567
27.5548 27.5552 27.5524 27.5464 27.5525 27.5477
27.5468 27.5488 27.5286 27.532 27.5473 27.5435
27.5317 27.529 27.5129 27.5116 27.5093 27.5097
27.5073 27.5013 27.507 27.5022 27.5011 27.503
27.4826 27.486 27.5015 27.4977 27.4856 27.4829
27.5378 27.5269 27.5404 27.5303 27.5153 27.5032
27.5193 27.5072 27.5372 27.5279 27.5237 27.5152
27.5173 27.5053 27.5051 27.4931 27.4928 27.4819
27.4949 27.4849 27.4704 27.4584 27.4739 27.4619
27.4914 27.4821 27.4776 27.4691 27.4716 27.4596
27.459 27.4471 27.5055 27.4819 27.5098 27.4866
27.4524 27.4188 27.4572 27.4232 27.5103 27.4875
27.5082 27.4858 27.4582 27.4239 27.4567 27.4221
27.3766 27.3798 27.341 27.3427 27.3796 27.377
27.3412 27.3374 27.4596 27.4361 27.4638 27.4407
27.4068 27.3735 27.4115 27.3777 27.4642 27.4415
27.4621 27.4397 27.4124 27.3782 27.4107 27.3764
27.3316 27.3346 27.2961 27.2976 27.3343 27.3316
27.2959 27.2921 27.5035 27.4815 27.4956 27.4739
27.4525 27.4177 27.445 27.4099 27.4858 27.4643
27.4738 27.4522 27.4353 27.3998 27.423 27.3871
27.3718 27.3631 27.3309 27.3209 27.3522 27.3385
27.3086 27.2936 27.4574 27.4354 27.4494 27.4277
27.4065 27.3718 27.3989 27.3639 27.4396 27.418
27.4277 27.406 27.3891 27.3538 27.3769 27.3411
27.3263 27.3175 27.2855 27.2754 27.3065 27.2928
27.263 27.248 27.4928 27.488 27.4973 27.4914
27.4874 27.4933 27.4893 27.4943 27.4953 27.4886
27.4827 27.4752 27.4853 27.4889 27.4705 27.4725
27.4479 27.4432 27.4519 27.4462 27.4427 27.4487
27.4443 27.4493 27.4495 27.443 27.4366 27.4292
27.4398 27.4436 27.4247 27.4268 27.5084 27.543
27.5098 27.542 27.6001 27.684 27.5954 27.6753
27.5033 27.5332 27.485 27.5122 27.5837 27.6603
27.5596 27.6326 27.4643 27.4991 27.465 27.4974
27.5564 27.6405 27.5511 27.6312 27.4581 27.4883
27.4394 27.4669 27.539 27.6159 27.5145 27.5878
27.4631 27.4412 27.4549 27.4324 27.4116 27.375
27.4023 27.3649 27.4492 27.426 27.4499 27.4256
27.3949 27.3567 27.3934 27.354 27.3254 27.3141
27.2792 27.2665 27.3046 27.3004 27.2554 27.2497
27.4169 27.3949 27.4088 27.3862 27.3654 27.3289
27.3561 27.3189 27.4032 27.3799 27.404 27.3796
27.3489 27.3107 27.3475 27.3081 27.2796 27.2684
27.2334 27.2208 27.2588 27.2548 27.2098 27.2042
27.4607 27.435 27.4859 27.4585 27.4015 27.3606
27.4233 27.3808 27.5307 27.5014 27.601 27.5694
27.4642 27.4197 27.5299 27.4832 27.3053 27.3235
27.2529 27.2693 27.3601 27.421 27.3039 27.3626
27.4149 27.3892 27.4404 27.4129 27.3557 27.3149
27.3777 27.3353 27.4855 27.456 27.556 27.5243
27.4188 27.3744 27.4848 27.4382 27.2598 27.2782
27.2075 27.224 27.315 27.3762 27.2589 27.3179
27.8794 28.0523 27.8434 28.0155 28.2499 28.4567
28.2136 28.4243 27.8128 27.9831 27.797 27.9647
28.1811 28.3955 28.162 28.3784 27.837 28.0101
27.8024 27.9747 28.2076 28.4137 28.1725 28.3825
27.7724 27.9427 27.7564 27.9242 28.1406 28.354
28.1213 28.3368 28.6001 28.5756 28.5529 28.5391
28.5548 28.5317 28.5098 28.4958 27.7915 27.9562
27.7874 27.9482 28.1523 28.3699 28.1421 28.3598
27.7848 27.9423 27.7857 27.9409 28.134 28.3513
28.1309 28.3476 27.7501 27.9149 27.7453 27.9063
28.1108 28.3274 28.1 28.3167 27.7423 27.9
27.7435 27.8988 28.0915 28.3078 28.0887 28.3043
28.5335 28.5254 28.5181 28.5151 28.4894 28.4807
28.4731 28.4703 27.7998 27.9513 27.787 27.9348
28.1386 28.3538 28.1189 28.3325 27.7687 27.9132
27.7373 27.8781 28.0947 28.3066 28.0563 28.2662
27.7566 27.9083 27.7433 27.8911 28.0954 28.3096
28.0751 28.2877 27.7246 27.8693 27.6928 27.8338
28.0506 28.2616 28.0119 28.2209 28.5217 28.5008
28.4752 28.4347 28.4763 28.4548 28.429 28.3882
27.7026 27.6685 27.8403 27.8037 27.6265 27.5774
27.7591 27.7076 28.0157 27.9768 28.2236 28.1831
27.9299 27.8761 28.1345 28.0791 27.5125 27.6398
27.4517 27.5767 27.8057 28.0065 27.7402 27.9391
27.658 27.6238 27.7959 27.7593 27.5818 27.5327
27.7147 27.6632 27.9713 27.9324 28.1783 28.1378
27.8855 27.8317 28.0893 28.0339 27.468 27.5956
27.4073 27.5325 27.7615 27.9615 27.6961 27.8942
28.392 28.3513 28.3024 28.2466 28.1732 28.105
28.3457 28.305 28.2561 28.2003 28.1272 28.059
27.3181 27.3186 27.285 27.2838 27.3161 27.3115
27.2797 27.2737 27.2527 27.2496 27.2285 27.2242
27.244 27.2366 27.2175 27.2091 27.2734 27.2738
27.2405 27.2391 27.2711 27.2664 27.235 27.2289
27.2082 27.205 27.1841 27.1798 27.1992 27.1918
27.173 27.1646 27.3041 27.293 27.2647 27.252
27.2797 27.2637 27.2371 27.2194 27.226 27.2116
27.1975 27.1819 27.1949 27.1757 27.1641 27.1438
27.2589 27.2478 27.2198 27.2071 27.2344 27.2184
27.192 27.1744 27.1811 27.1667 27.1529 27.1372
27.15 27.1307 27.1194 27.0992 27.2065 27.2012
27.1803 27.1738 27.1935 27.1842 27.165 27.1547
27.143 27.1354 27.1029 27.0947 27.1257 27.1145
27.0844 27.0726 27.162 27.1566 27.136 27.1294
27.1488 27.1395 27.1206 27.1102 27.0987 27.091
27.0586 27.0503 27.0812 27.07 27.0399 27.0281
27.1716 27.1549 27.141 27.1231 27.136 27.1147
27.1029 27.08 27.0997 27.0806 27.0571 27.0373
27.0592 27.035 27.0152 26.9901 27.1268 27.1101
27.0965 27.0785 27.0912 27.0699 27.0583 27.0355
27.0552 27.0361 27.0127 26.9928 27.0148 26.9906
26.9707 26.9457 27.2482 27.2345 27.2024 27.187
27.2224 27.2156 27.1732 27.1647 27.1578 27.1409
27.1268 27.1088 27.1253 27.1149 27.092 27.0802
27.2028 27.1891 27.1573 27.142 27.177 27.1703
27.1282 27.1198 27.1128 27.0959 27.0819 27.0641
27.0804 27.07 27.0473 27.0356 27.2176 27.2327
27.1649 27.1781 27.2659 27.3232 27.2092 27.2643
27.1131 27.1242 27.0771 27.0867 27.1532 27.2059
27.1141 27.1652 27.1725 27.1878 27.1201 27.1334
27.2212 27.2788 27.1648 27.2202 27.0684 27.0797
27.0326 27.0424 27.1089 27.162 27.0701 27.1215
27.0964 27.0772 27.058 27.037 27.0591 27.046
27.0173 27.0024 27.0111 26.9885 26.9651 26.9413
26.967 26.9503 26.9184 26.8999 27.0516 27.0326
27.0134 26.9926 27.0146 27.0016 26.973 26.9583
26.9667 26.9442 26.9207 26.8971 26.9229 26.9062
26.8743 26.856 27.0414 27.0495 26.996 27.0021
27.0753 27.1247 27.0258 27.0729 26.9417 26.9454
26.8894 26.8908 26.9665 27.0108 26.9094 26.951
26.9972 27.0054 26.952 26.9583 27.0315 27.0812
26.9823 27.0297 26.8978 26.9018 26.8456 26.8474
26.9231 26.9678 26.8663 26.9082 27.0606 27.0522
27.0267 27.0183 27.0416 27.0296 27.0079 26.9959
27.0033 26.9952 26.9673 26.9595 26.9848 26.973
26.9495 26.9379 27.0162 27.0077 26.9822 26.9738
26.9972 26.9852 26.9633 26.9513 26.9589 26.9507
26.9229 26.9151 26.9403 26.9285 26.9051 26.8935
27.0139 26.9937 26.9802 26.9599 26.9711 26.9454
26.9372 26.9113 26.9573 26.9371 26.9225 26.9025
26.9144 26.8884 26.8798 26.8539 26.9694 26.9492
26.9356 26.9154 26.9266 26.9011 26.8927 26.8669
26.9129 26.8927 26.8781 26.8581 26.87 26.8442
26.8355 26.8096 26.928 26.9208 26.8868 26.8804
26.9113 26.9001 26.8715 26.8609 26.8302 26.8249