<VTKFile type="UnstructuredGrid" version="1.0" byte_order="LittleEndian" header_type="UInt64">
<UnstructuredGrid>
<Piece NumberOfPoints="4722" NumberOfCells="2944">
<PointData>
</PointData>
<CellData Scalars="Temperature (C)">
<DataArray type="Float32" Name="Temperature (C)" format="ascii" RangeMin="22.3261" RangeMax="28.9646">
23.2015 23.2091 23.1436 23.145 23.2015 23.2107
23.2008 23.2102 23.1422 23.1455 23.1453 23.1525
23.1162 23.1162 23.041 23.0387 23.1154 23.1172
23.1205 23.1272 23.0424 23.0413 23.0529 23.0581
23.1896 23.1997 23.1386 23.147 23.1604 23.1714
23.1242 23.1026 23.1353 23.1136 23.1127 23.1221
23.0784 23.0578 23.088 23.0675 23.1158 23.1238
23.0535 23.0603 23.0914 23.1004 23.0581 23.0379
23.0673 23.0472 23.0331 23.0411 23.0023 22.9834
23.0106 22.9918 23.0805 23.0914 23.0368 23.0464
23.0205 23.0309 22.9796 22.9888 23.0173 23.0266
22.9639 22.9723 22.9612 22.9701 22.9105 22.9186
22.9072 22.9027 22.9099 22.9062 22.924 22.9273
22.7941 22.7871 22.7957 22.79 22.8093 22.8111
22.7024 22.6933 22.7027 22.6956 22.7149 22.7156
22.615 22.6041 22.6142 22.6057 22.6246 22.624
22.9303 22.9354 22.9154 22.9217 22.8886 22.8719
22.8952 22.8786 22.8171 22.8208 22.8051 22.8101
22.7817 22.767 22.7869 22.7724 22.8545 22.8612
22.8064 22.8129 22.7517 22.757 22.7094 22.7144
22.7223 22.7249 22.7115 22.7152 22.6907 22.6778
22.6946 22.6818 22.6295 22.6307 22.6181 22.6202
22.5995 22.5882 22.6017 22.5905 22.6643 22.6684
22.6273 22.6311 22.5767 22.5791 22.5458 22.5479
22.8846 22.8936 22.8486 22.8566 22.7231 22.7294
22.6929 22.6985 22.8323 22.8401 22.7873 22.7943
22.6793 22.6848 22.6415 22.6463 22.5632 22.5639
22.5403 22.5412 22.4522 22.4525 22.4344 22.4349
22.53 22.5309 22.5012 22.502 22.4265 22.4272
22.4052 22.4058 22.3818 22.3808 22.3678 22.367
22.3658 22.3648 22.3539 22.3531 22.362 22.3614
22.3476 22.347 22.3493 22.3487 22.3385 22.3381
22.3987 22.4009 22.3871 22.3894 22.463 22.4654
22.4491 22.4518 22.3827 22.3853 22.373 22.3757
22.4438 22.4467 22.4319 22.435 22.6944 22.6997
22.5622 22.5649 22.6111 22.615 22.4977 22.4992
22.4379 22.4359 22.3607 22.3586 22.398 22.396
22.3413 22.3392 22.5429 22.5454 22.4487 22.4483
22.4797 22.4806 22.4109 22.4092 22.3767 22.3754
22.3397 22.3385 22.3681 22.3668 22.3511 22.3501
22.3276 22.3273 22.3307 22.3307 22.3262 22.3261
22.34 22.3402 22.37 22.3733 22.4274 22.431
22.3841 22.3876 22.4429 22.4467 22.3414 22.3431
22.364 22.366 22.367 22.3689 22.3979 22.4001
22.4111 22.4158 22.4716 22.4766 22.4489 22.4538
22.5118 22.517 22.5413 22.5292 22.5394 22.53
22.5471 22.5454 22.4922 22.4801 22.4899 22.4804
22.497 22.4953 22.4675 22.4555 22.4654 22.4559
22.474 22.4726 22.4611 22.4493 22.4599 22.4504
22.4711 22.4704 22.5476 22.5469 22.5331 22.532
22.5158 22.5056 22.5147 22.5043 22.4965 22.4953
22.4831 22.481 22.4696 22.4622 22.4676 22.46
22.4955 22.4933 22.4702 22.4675 22.4551 22.4524
22.438 22.4351 22.4761 22.475 22.4678 22.4657
22.4598 22.4557 22.4578 22.4538 22.4786 22.4782
22.4774 22.4765 22.4742 22.4724 22.4733 22.4716
22.4521 22.4504 22.444 22.4424 22.471 22.4697
22.4686 22.4673 22.4716 22.46 22.4716 22.4623
22.4869 22.487 22.507 22.4956 22.5087 22.4996
22.5288 22.5299 22.5645 22.5535 22.5679 22.5593
22.593 22.5952 22.6433 22.6327 22.6484 22.6404
22.6782 22.6817 22.5016 22.5021 22.5091 22.5095
22.5118 22.5133 22.5123 22.5139 22.552 22.5537
22.568 22.5699 22.5752 22.5787 22.5771 22.5806
22.5149 22.5159 22.52 22.5212 22.5819 22.5835
22.5912 22.5927 22.6245 22.6275 22.6487 22.6522
22.6608 22.6669 22.6644 22.6706 22.7174 22.7219
22.7482 22.7533 22.7631 22.7703 22.7682 22.7753
22.6725 22.6764 22.6874 22.6914 22.7765 22.781
22.7933 22.7975 22.4284 22.4259 22.393 22.3906
22.416 22.4134 22.4028 22.4006 22.383 22.3839
22.3853 22.3866 22.4127 22.4139 22.4292 22.4307
22.4403 22.4406 22.4423 22.443 22.4769 22.4776
22.4897 22.4907 22.4631 22.4664 22.4887 22.4924
22.5188 22.5223 22.5512 22.5551 22.4123 22.4161
22.4501 22.4542 22.4656 22.4696 22.5093 22.5136
22.5044 22.5108 22.5695 22.5762 22.5668 22.5734
22.634 22.6409 22.5313 22.5372 22.5792 22.5854
22.5986 22.6046 22.6496 22.656 22.6388 22.6469
22.7073 22.7158 22.7108 22.7192 22.7802 22.7888
22.5395 22.5427 22.5619 22.5654 22.6193 22.6228
22.6497 22.6535 22.5979 22.6037 22.636 22.6421
22.6918 22.6978 22.7348 22.7411 22.7229 22.729
22.7592 22.7656 22.833 22.8394 22.8732 22.8799
22.8054 22.8138 22.8513 22.8601 22.9221 22.9308
22.9698 22.9787 22.6872 22.6953 22.7407 22.7491
22.7891 22.7974 22.8445 22.853 22.8028 22.8129
22.8724 22.8828 22.907 22.9174 22.9764 22.987
22.9071 22.9176 22.963 22.9737 23.0261 23.0367
23.0817 23.0925 23.0248 23.0371 23.093 23.1055
23.1424 23.1547 23.2088 23.2213 22.7431 22.7334
22.7499 22.7427 22.7841 22.7888 22.8656 22.8575
22.8736 22.8674 22.9112 22.9173 23.0099 23.0031
23.0192 23.014 23.0599 23.0674 23.1779 23.1725
23.1882 23.1843 23.2318 23.2406 22.8304 22.8363
22.8674 22.8743 22.8855 22.8943 22.8924 22.9012
22.9632 22.9707 23.0045 23.0129 23.0236 23.0325
23.0321 23.0408 22.9019 22.9088 22.9219 22.9287
23.04 23.0475 23.0596 23.0667 23.117 23.1261
23.1623 23.1725 23.183 23.1926 23.1933 23.2029
23.2928 23.3036 23.3402 23.352 23.3603 23.3692
23.3721 23.3807 23.2008 23.2107 23.2215 23.2312
23.3762 23.3866 23.3945 23.4043 23.3723 23.368
23.3835 23.3807 23.4293 23.4397 23.5959 23.593
23.6079 23.6065 23.6557 23.6679 23.8522 23.8506
23.8649 23.865 23.9147 23.9287 24.1427 24.1426
24.1562 24.1581 24.208 24.2243 23.4937 23.5062
23.5429 23.5566 23.5631 23.5719 23.5767 23.5855
23.7226 23.7369 23.7718 23.7873 23.7897 23.7969
23.8051 23.8119 23.5789 23.5919 23.5965 23.6091
23.8019 23.8155 23.8149 23.8277 23.9836 24
24.0328 24.0504 24.0495 24.0559 24.0671 24.0733
24.2784 24.2972 24.3258 24.3457 24.3386 24.3424
24.3583 24.3616 24.0603 24.0769 24.0709 24.087
24.3439 24.3612 24.3477 24.3638 22.965 22.9739
23.0074 23.0166 23.1034 23.1124 23.1462 23.1555
23.0572 23.0682 23.1051 23.1163 23.1955 23.2066
23.2423 23.2536 23.2649 23.2764 23.3064 23.3181
23.4348 23.4465 23.4732 23.485 23.3534 23.3667
23.3975 23.4109 23.5165 23.5299 23.5567 23.5702
23.1604 23.1732 23.2145 23.2274 23.2957 23.3084
23.3472 23.3601 23.2728 23.287 23.3363 23.3506
23.4024 23.4165 23.4622 23.4764 23.4471 23.4618
23.4947 23.5096 23.6018 23.6166 23.645 23.6599
23.5454 23.5614 23.6004 23.6165 23.691 23.7069
23.7408 23.7569 23.6327 23.647 23.6664 23.6809
23.8448 23.8592 23.8724 23.887 23.7043 23.7201
23.7394 23.7553 23.9041 23.92 23.9334 23.9494
24.0934 24.1107 24.1137 24.1312 24.3607 24.3781
24.3727 24.3903 24.1377 24.1562 24.1602 24.1787
24.3888 24.4073 24.4044 24.4229 23.7787 23.7956
23.8164 23.8335 23.9667 23.9837 23.9989 24.0159
23.8568 23.8747 23.901 23.919 24.0338 24.0517
24.0724 24.0904 24.1864 24.2057 24.2123 24.2317
24.4237 24.443 24.4436 24.4629 24.241 24.261
24.2736 24.2937 24.4665 24.4864 24.4933 24.5133
24.466 24.4678 24.4803 24.4844 24.5346 24.5536
24.8153 24.8193 24.8308 24.8376 24.8882 24.9107
25.1766 25.1835 25.1937 25.204 25.2561 25.2834
25.5204 25.5309 25.54 25.5546 25.6103 25.6444
24.6064 24.628 24.6522 24.6749 24.6625 24.665
24.685 24.6872 24.9617 24.9869 25.0045 25.0304
25.0094 25.0082 25.035 25.0331 24.6652 24.6863
24.665 24.6853 25.0044 25.0266 24.9949 25.0155
25.3333 25.3631 25.375 25.4052 25.3773 25.3746
25.4073 25.404 25.6953 25.7317 25.7385 25.7748
25.7372 25.7312 25.7728 25.7655 25.3695 25.397
25.3557 25.3819 25.7219 25.7513 25.6992 25.7258
25.7265 25.7396 25.7466 25.7646 25.8223 25.8623
25.9219 25.9636 25.9748 26.0162 25.9783 25.9756
26.0193 26.0162 25.9703 26.0094 25.9545 25.9927
24.6678 24.6889 24.6708 24.6919 24.9866 25.0079
24.9809 25.0022 24.6779 24.6996 24.686 24.7077
24.9801 25.0019 24.9815 25.0034 25.338 25.3645
25.3245 25.351 25.6737 25.7004 25.6544 25.6812
25.316 25.3426 25.3114 25.338 25.6408 25.6676
25.6318 25.6587 24.6978 24.7199 24.7113 24.7335
24.987 25.0092 24.995 25.0173 24.7281 24.7506
24.749 24.7716 25.0067 25.0293 25.0227 25.0453
25.3107 25.3374 25.3138 25.3405 25.6269 25.6538
25.6265 25.6534 25.3206 25.3473 25.3322 25.3589
25.63 25.6569 25.6385 25.6654 25.9282 25.9666
25.907 25.9453 25.8902 25.9286 25.879 25.9173
25.8714 25.9096 25.8692 25.9073 25.8706 25.9085
25.8775 25.9154 25.5955 25.6183 25.6107 25.641
25.6792 25.7108 25.8533 25.8946 25.5756 25.595
25.5942 25.619 25.6482 25.6796 25.5295 25.5464
25.5505 25.5717 25.5938 25.6251 25.8044 25.8448
25.7358 25.7754 26.0879 26.1374 26.2674 26.317
25.9971 26.0374 25.9114 25.9517 26.1621 26.2022
26.0663 26.1063 25.4748 25.4903 25.4967 25.5159
25.5342 25.5652 25.4235 25.4382 25.4455 25.4636
25.4804 25.5107 25.668 25.7069 25.6106 25.6487
25.3778 25.3922 25.3992 25.4167 25.4338 25.4631
25.3463 25.361 25.366 25.3839 25.4033 25.4313
25.5631 25.6002 25.5342 25.5705 25.8351 25.8743
25.7764 25.8156 25.9847 26.0237 25.924 25.9631
25.7283 25.7664 25.7022 25.7404 25.8752 25.9132
25.8489 25.887 26.4218 26.4714 26.5662 26.6157
26.3126 26.3532 26.2121 26.2526 26.4545 26.4948
26.3513 26.3917 26.7081 26.7603 26.805 26.857
26.5938 26.6366 26.4891 26.5319 26.6903 26.7329
26.5857 26.6284 26.128 26.1678 26.066 26.1058
26.2657 26.3052 26.2026 26.2422 26.0166 26.0554
25.9896 26.0286 26.1525 26.1912 26.1245 26.1633
26.4026 26.4447 26.3389 26.3811 26.4997 26.5416
26.4363 26.4784 26.2881 26.3293 26.2591 26.3005
26.3856 26.4267 26.3562 26.3974 26.8624 26.9135
26.8926 26.9438 26.75 26.7922 26.6472 26.6895
26.7819 26.824 26.6814 26.7236 26.8911 26.9436
26.8282 26.8811 26.7822 26.8255 26.6851 26.7285
26.7223 26.7659 26.6304 26.6739 26.5632 26.6048
26.5012 26.543 26.5998 26.6414 26.5399 26.5817
26.4517 26.4925 26.4224 26.4635 26.4919 26.5328
26.4633 26.5043 26.6076 26.6504 26.5509 26.5939
26.5586 26.6016 26.5069 26.55 26.5055 26.5477
26.4782 26.5204 26.4657 26.5079 26.4407 26.483
26.6802 26.7317 26.436 26.4875 26.5799 26.6222
26.4962 26.5384 26.3442 26.3867 26.2721 26.3146
26.0888 26.1343 25.7145 25.7575 26.0085 26.0453
25.9514 25.9881 25.6506 25.687 25.6093 25.6456
26.4341 26.476 26.3905 26.4325 26.2228 26.2649
26.1901 26.2323 26.3566 26.3981 26.3356 26.3772
26.1657 26.2074 26.1505 26.1922 25.9194 25.9565
25.9008 25.9379 25.5935 25.6303 25.5883 25.6252
25.89 25.9275 25.8824 25.92 25.5901 25.6274
25.59 25.6274 25.2557 25.2826 24.8009 24.8244
25.2081 25.23 25.1826 25.2045 24.7675 24.7886
24.7543 24.7753 24.3472 24.3634 23.9722 23.9873
24.3139 24.3264 24.3046 24.317 23.9399 23.9519
23.9318 23.9436 25.1854 25.2092 25.1946 25.2187
24.7684 24.7915 24.7877 24.8109 25.2124 25.2388
25.2208 25.2474 24.8151 24.8409 24.83 24.8559
24.3198 24.3329 24.3425 24.3558 23.9466 23.9592
23.9694 23.982 24.3728 24.388 24.3915 24.4067
23.9993 24.0138 24.0193 24.0339 23.6683 23.6815
23.4247 23.4372 23.6345 23.6443 23.626 23.6356
23.3929 23.4024 23.3859 23.3953 23.2196 23.2305
23.1058 23.1163 23.1917 23.2 23.1894 23.1976
23.0837 23.0917 23.0876 23.0956 23.6381 23.6478
23.658 23.6678 23.3983 23.4078 23.4179 23.4275
23.6819 23.6919 23.701 23.711 23.4405 23.4501
23.4597 23.4694 23.206 23.2144 23.2287 23.2371
23.11 23.1182 23.1379 23.1461 23.2531 23.2614
23.2743 23.2826 23.1675 23.1756 23.193 23.2011
23.0302 23.0403 22.8968 22.9066 23.013 23.0208
23.0223 23.03 22.8952 22.9028 22.9184 22.9261
22.5792 22.5862 22.5571 22.5643 22.7181 22.7274
22.6701 22.6794 22.5486 22.556 22.5292 22.5367
22.6547 22.6642 22.6239 22.6333 22.775 22.7825
22.7348 22.7422 22.828 22.8355 22.799 22.8065
22.7218 22.7295 22.6965 22.7041 22.79 22.7977
22.7739 22.7817 23.0496 23.0576 23.0821 23.0901
22.9579 22.9659 23.0024 23.0105 23.1166 23.1245
23.1465 23.1545 23.0519 23.0597 23.0981 23.106
22.8902 22.8984 22.872 22.8802 22.9587 22.967
22.9511 22.9594 22.867 22.8754 22.8601 22.8685
22.9498 22.9583 22.9514 22.96 23.0457 23.054
23.0501 23.0584 23.1646 23.173 23.1804 23.1888
23.0529 23.0614 23.0627 23.0713 23.1863 23.1949
23.2015 23.2102 22.5136 22.5198 22.6002 22.6067
22.5273 22.5337 22.6139 22.6205 22.6906 22.6989
22.7813 22.7898 22.7113 22.7197 22.8092 22.8179
22.556 22.5634 22.6438 22.6514 22.5973 22.6049
22.6865 22.6944 22.7448 22.7543 22.8467 22.8564
22.7898 22.7995 22.8942 22.9041 22.8789 22.8883
22.9795 22.9891 22.9127 22.9223 23.0174 23.0272
23.0981 23.108 23.2399 23.2499 23.1385 23.1486
23.2803 23.2905 22.9535 22.9642 23.0602 23.0711
23.0028 23.0137 23.1102 23.1213 23.1822 23.1936
23.3231 23.3346 23.2319 23.2435 23.371 23.3827
23.3667 23.3749 23.3737 23.382 23.6325 23.6408
23.6356 23.6441 23.3775 23.386 23.3896 23.3982
23.6377 23.6464 23.6459 23.6546 23.9368 23.946
23.9374 23.9467 24.2151 24.225 24.2142 24.2241
23.9383 23.9478 23.9429 23.9524 24.2143 24.2244
24.2161 24.2264 24.5129 24.5295 24.8636 24.8805
24.5107 24.5273 24.8603 24.8772 25.2389 25.2559
25.5374 25.5567 25.2346 25.2516 25.5321 25.5513
24.5101 24.5269 24.859 24.8761 24.5096 24.5264
24.8565 24.8735 25.2329 25.25 25.5299 25.5491
25.2288 25.2458 25.525 25.544 25.7054 25.8574
25.733 25.8869 26.183 26.2129 25.6996 25.8515
25.7268 25.8805 26.1775 26.2069 26.6848 26.721
26.6817 26.7174 25.697 25.8489 25.7238 25.8773
26.1748 26.2037 25.6917 25.8431 25.718 25.8711
26.1688 26.1971 26.6801 26.7154 26.6769 26.7116
23.4257 23.4358 23.6752 23.6853 23.4633 23.4736
23.7065 23.7169 23.963 23.9736 24.2285 24.2396
23.9862 23.997 24.2441 24.2554 23.5034 23.515
23.7409 23.7526 23.5477 23.5596 23.7792 23.791
24.013 24.025 24.2637 24.276 24.0435 24.0557
24.287 24.2995 24.5118 24.5279 24.8506 24.867
25.2182 25.2345 25.5121 25.5303 24.5195 24.5357
24.8512 24.8676 25.2134 25.2297 25.5042 25.5222
25.6778 25.8287 25.7031 25.8557 26.1542 26.1814
26.6666 26.7003 25.6683 25.8182 25.6931 25.8446
26.1424 26.169 26.657 26.69 24.5306 24.5469
24.8556 24.8719 25.2126 25.2287 25.5001 25.5179
24.5466 24.5629 24.8645 24.8808 25.2156 25.2317
25.4993 25.5169 25.6626 25.8114 25.687 25.8373
26.1339 26.1599 26.6493 26.6817 25.6599 25.8072
25.6838 25.8325 26.1271 26.1526 26.642 26.6739
27.1602 27.2042 27.1613 27.2048 27.5172 27.5697
27.6769 27.7559 27.7292 27.8083 27.5207 27.5728
27.6809 27.7602 27.7329 27.8123 27.1617 27.2054
27.1635 27.2068 27.5223 27.5745 27.683 27.7626
27.735 27.8147 27.5274 27.5792 27.6897 27.77
27.7414 27.8217 27.818 27.8713 27.9636 28.0164
27.8229 27.8757 27.97 28.0223 28.0578 28.1095
28.0659 28.1173 27.8254 27.8784 27.9728 28.0253
27.8331 27.8857 27.9811 28.0331 28.0693 28.1209
28.0787 28.1296 27.1615 27.2045 27.53 27.5815
27.6943 27.7754 27.7455 27.8267 27.1576 27.2005
27.5289 27.5801 27.6944 27.7762 27.7453 27.8272
27.8393 27.8913 27.9888 28.0403 28.0887 28.139
27.8406 27.8923 27.9913 28.0424 28.0934 28.1433
27.1537 27.1964 27.5265 27.5774 27.6926 27.7748
27.7432 27.8254 27.1489 27.1916 27.5222 27.5728
27.6885 27.7707 27.7389 27.8211 27.8394 27.8908
27.9908 28.0416 28.0942 28.1437 27.8354 27.8865
27.987 28.0375 28.0904 28.1396 22.6559 22.6648
22.7462 22.7553 22.7214 22.7304 22.8122 22.8215
22.8506 22.8615 22.956 22.9671 22.9168 22.9279
23.0222 23.0335 22.7947 22.8051 22.8853 22.896
22.8674 22.878 22.9574 22.9683 22.9893 23.0016
23.0938 23.1064 23.0603 23.0728 23.1636 23.1763
23.0651 23.0773 23.1722 23.1846 23.1308 23.1432
23.2368 23.2493 23.2929 23.3058 23.4295 23.4425
23.3556 23.3687 23.4893 23.5025 23.2012 23.2148
23.3056 23.3194 23.2694 23.2832 23.3722 23.3861
23.4223 23.4367 23.5531 23.5676 23.4867 23.5012
23.6146 23.6291 22.9586 22.9708 23.0475 23.0599
23.0613 23.0736 23.1484 23.1609 23.1485 23.1624
23.2499 23.264 23.2472 23.2612 23.3463 23.3604
23.1755 23.1895 23.2603 23.2744 23.2887 23.3026
23.3705 23.3845 23.356 23.3714 23.452 23.4674
23.4626 23.4779 23.5548 23.5702 23.3537 23.3688
23.4543 23.4694 23.4475 23.4625 23.5455 23.5605
23.5663 23.582 23.6909 23.7065 23.6542 23.6697
23.7746 23.7901 23.5499 23.5662 23.6445 23.6608
23.6488 23.6649 23.7395 23.7557 23.7493 23.7662
23.8651 23.8819 23.8399 23.8567 23.9507 23.9675
23.6023 23.6156 23.8272 23.8405 23.6578 23.6712
23.8763 23.8896 24.0833 24.0967 24.3188 24.3324
24.1245 24.138 24.3527 24.3664 23.7176 23.7323
23.9299 23.9444 23.7751 23.7899 23.9816 23.9963
24.1705 24.1852 24.3915 24.4063 24.2154 24.2301
24.4297 24.4445 24.5695 24.5861 24.8794 24.8959
25.2235 25.2399 25.5025 25.5203 24.5959 24.6125
24.8979 24.9144 25.2349 25.2512 25.5089 25.5266
25.6606 25.8059 25.6843 25.8309 26.1223 26.1475
26.635 26.6665 25.6643 25.8074 25.6878 25.8322
26.1196 26.1445 26.6282 26.6595 24.6266 24.6437
24.9206 24.9375 25.25 25.2667 25.5183 25.5364
24.6578 24.6749 24.9441 24.9611 25.2661 25.2829
25.5289 25.5471 25.6706 25.8112 25.6941 25.8359
26.1184 26.1433 26.6217 26.653 25.6784 25.8165
25.7019 25.8412 26.1187 26.1436 26.616 26.6472
23.8469 23.8628 24.0467 24.0625 23.9251 23.9409
24.1171 24.1328 24.2722 24.2881 24.4786 24.4946
24.3336 24.3494 24.5317 24.5476 24.0096 24.0268
24.1935 24.2106 24.0891 24.1063 24.2654 24.2826
24.4009 24.4182 24.5908 24.6081 24.4646 24.4819
24.6473 24.6647 24.6979 24.7156 24.9751 24.9927
25.2881 25.3056 25.5443 25.563 24.7426 24.7603
25.0103 25.0279 25.3141 25.3317 25.5638 25.5825
25.69 25.8249 25.7136 25.8496 26.1209 26.1458
26.6108 26.6419 25.706 25.8379 25.7297 25.8627
26.1275 26.1525 26.6087 26.6397 24.7929 24.8115
25.0514 25.0699 25.3461 25.3646 25.5888 25.6083
24.8422 24.8609 25.0927 25.1113 25.3795 25.398
25.6166 25.6362 25.7272 25.8557 25.7511 25.8807
26.1386 26.1637 26.6109 26.6417 25.752 25.8777
25.776 25.9029 26.1547 26.18 26.6179 26.6486
23.4121 23.4276 23.4898 23.5054 23.5333 23.5487
23.6062 23.6217 23.577 23.5937 23.6644 23.6811
23.6882 23.7048 23.7705 23.7872 23.6658 23.6829
23.7332 23.7503 23.8005 23.8176 23.8624 23.8796
23.8093 23.8275 23.8864 23.9046 23.933 23.9512
24.0049 24.0232 23.7537 23.7711 23.84 23.8576
23.8551 23.8725 23.9373 23.9548 23.9358 23.9539
24.0418 24.0599 24.0288 24.0469 24.1303 24.1485
23.9661 23.985 24.0442 24.0632 24.0796 24.0985
24.1538 24.1728 24.1316 24.1512 24.229 24.2485
24.2374 24.257 24.3308 24.3504 23.9543 23.9732
24.0104 24.0294 24.1197 24.1385 24.1702 24.189
24.0751 24.0948 24.1418 24.1616 24.2292 24.2488
24.291 24.3107 24.3143 24.335 24.3589 24.3796
24.5279 24.5485 24.5669 24.5875 24.4119 24.4332
24.4684 24.4897 24.6143 24.6354 24.6657 24.6869
24.2119 24.2322 24.2822 24.3026 24.3571 24.3773
24.4237 24.444 24.3619 24.3827 24.4514 24.4723
24.4995 24.5203 24.5852 24.6059 24.5298 24.5515
24.5924 24.6141 24.7225 24.7441 24.7811 24.8028
24.6641 24.6863 24.7457 24.7679 24.8488 24.8709
24.9262 24.9484 24.1745 24.1931 24.3438 24.3623
24.2579 24.2765 24.4208 24.4394 24.5354 24.5541
24.7114 24.7301 24.6058 24.6245 24.7758 24.7946
24.3517 24.3718 24.5089 24.5288 24.4491 24.4691
24.6007 24.6207 24.6876 24.7077 24.852 24.8721
24.7736 24.7938 24.9329 24.953 24.8991 24.9188
25.1419 25.1615 25.4209 25.4404 25.6518 25.6722
24.9577 24.9774 25.1937 25.2133 25.4659 25.4853
25.6918 25.7122 25.7836 25.9063 25.808 25.9317
26.177 26.2024 26.6309 26.6614 25.8209 25.9412
25.8456 25.9668 26.2063 26.2319 26.6507 26.681
25.0279 25.0487 25.2571 25.2778 25.5223 25.5428
25.7425 25.7638 25.1036 25.1244 25.3267 25.3474
25.5855 25.606 25.801 25.8223 25.8683 25.9855
25.8933 26.0114 26.2444 26.2702 26.6788 26.7089
25.9243 26.039 25.9496 26.0652 26.2922 26.3183
26.716 26.746 24.5653 24.5866 24.7116 24.7328
24.6946 24.7158 24.8356 24.8567 24.8788 24.9003
25.033 25.0544 24.9971 25.0185 25.1462 25.1675
24.8505 24.8731 24.9859 25.0084 25.0263 25.0489
25.156 25.1785 25.1415 25.1644 25.2853 25.3081
25.3055 25.3283 25.4439 25.4666 25.1982 25.2202
25.4149 25.4367 25.6666 25.6881 25.876 25.8983
25.3062 25.3281 25.5164 25.5381 25.7612 25.7827
25.9653 25.9877 25.9957 26.1073 26.0215 26.1339
26.3535 26.38 26.7654 26.7955 26.0822 26.1909
26.1085 26.2182 26.4305 26.4577 26.8297 26.86
25.4397 25.4631 25.6429 25.6661 25.8796 25.9026
26.0769 26.1006 25.5927 25.6161 25.7888 25.812
26.0178 26.0407 26.2092 26.2331 26.1896 26.2947
26.2168 26.3227 26.5263 26.5542 26.9115 26.9421
26.3189 26.4208 26.3467 26.4496 26.6449 26.6735
27.0154 27.0464 27.1426 27.1854 27.515 27.5656
27.6808 27.7627 27.7311 27.813 27.1346 27.1776
27.5048 27.5555 27.6694 27.7508 27.7198 27.8012
27.8271 27.8782 27.978 28.0285 28.0801 28.1294
27.8146 27.8659 27.9643 28.015 28.0648 28.1141
27.1253 27.1686 27.4925 27.5434 27.6558 27.7363
27.7064 27.787 27.1162 27.1596 27.4802 27.5312
27.642 27.7219 27.6927 27.7727 27.7997 27.8511
27.948 27.9989 28.0473 28.0968 27.7847 27.8363
27.9318 27.9828 28.0303 28.0799 27.1063 27.1499
27.4666 27.5176 27.6268 27.7059 27.6775 27.7567
27.0983 27.1419 27.4544 27.5054 27.6128 27.691
27.6635 27.7418 27.7681 27.8197 27.9137 27.9648
28.0117 28.0614 27.7525 27.8041 27.8966 27.9476
27.9932 28.0429 27.0941 27.1376 27.4461 27.4969
27.6027 27.68 27.6532 27.7307 27.0944 27.1376
27.4424 27.493 27.5972 27.6737 27.6476 27.7241
27.7409 27.7923 27.8832 27.9342 27.9779 28.0275
27.7338 27.7851 27.8746 27.9254 27.9673 28.0168
27.1001 27.1429 27.4443 27.4946 27.5975 27.6732
27.6476 27.7233 27.1122 27.1546 27.4528 27.5028
27.6045 27.6794 27.6542 27.7293 27.7327 27.7837
27.8719 27.9225 27.963 28.0122 27.7384 27.7891
27.8762 27.9265 27.9655 28.0145 27.1321 27.1739
27.469 27.5186 27.6192 27.6933 27.6685 27.7428
27.1599 27.2011 27.4928 27.5421 27.6412 27.7144
27.6903 27.7638 27.7517 27.8021 27.8879 27.938
27.9743 28.0231 27.772 27.8224 27.9062 27.9563
27.989 28.038 27.1986 27.2393 27.5271 27.5763
27.6735 27.7458 27.7226 27.7951 27.2509 27.2913
27.5749 27.6241 27.7194 27.7909 27.7687 27.8404
27.8026 27.853 27.9349 27.9851 28.0145 28.0638
27.8471 27.8978 27.9779 28.0285 28.0551 28.1047
27.3196 27.3594 27.6387 27.688 27.7816 27.8524
27.8309 27.902 27.4095 27.4489 27.7234 27.7726
27.8649 27.9353 27.9142 27.9849 27.9082 27.9591
28.0379 28.0888 28.1138 28.1637 27.9908 28.0419
28.1203 28.1715 28.1961 28.2463 24.7773 24.8002
24.8107 24.8337 25.0458 25.0687 25.0745 25.0974
24.8524 24.8757 24.8988 24.9222 25.1113 25.1346
25.1534 25.1768 25.3504 25.3771 25.3749 25.4016
25.6534 25.6803 25.675 25.7019 25.4072 25.4341
25.4454 25.4723 25.7042 25.7312 25.7395 25.7665
24.9509 24.9746 25.0055 25.0292 25.2015 25.2251
25.2525 25.2761 25.0691 25.0932 25.1424 25.1664
25.3122 25.3362 25.3815 25.4055 25.4895 25.5165
25.537 25.564 25.7806 25.8077 25.8253 25.8524
25.5928 25.62 25.658 25.6852 25.8778 25.9051
25.9394 25.9667 25.8904 25.9281 25.9107 25.9483
25.9379 25.9753 25.9718 26.0091 26.0108 26.048
26.0538 26.0909 26.1039 26.141 26.1631 26.2
25.2376 25.2621 25.3614 25.3858 25.4719 25.4963
25.5897 25.614 25.5047 25.5294 25.6374 25.662
25.7265 25.7511 25.8533 25.8779 25.7434 25.7709
25.855 25.8824 26.02 26.0476 26.1257 26.1532
25.9848 26.0125 26.1053 26.1329 26.2487 26.2763
26.3628 26.3904 25.7804 25.8056 25.9687 25.9938
26.1887 26.2136 26.3724 26.398 25.9901 26.0153
26.1706 26.1956 26.382 26.4068 26.5596 26.5853
26.4775 26.5752 26.5064 26.6049 26.7901 26.8197
27.145 27.1764 26.6614 26.7557 26.6912 26.7865
26.9625 26.9931 27.3012 27.3333 26.2355 26.2636
26.4073 26.4352 26.6085 26.6361 26.7771 26.8053
26.4863 26.5143 26.6496 26.6774 26.8412 26.8688
27.0029 27.0315 26.8735 26.963 26.9051 26.9953
27.1595 27.1916 27.4812 27.5145 27.0961 27.182
27.1295 27.2164 27.3695 27.4038 27.6753 27.7103
26.24 26.2768 26.3415 26.378 26.4591 26.4953
26.5684 26.6042 26.6861 26.722 26.8429 26.8783
27.026 27.0606 27.1766 27.2106 27.2615 27.3415
27.2961 27.3762 27.5189 27.5529 27.8145 27.8485
27.5239 27.563 27.8319 27.8809 27.9723 28.0425
28.0214 28.092 27.6641 27.7029 27.9654 28.0141
28.1048 28.175 28.1537 28.2244 28.0982 28.1495
28.2284 28.2799 28.3055 28.3562 28.2313 28.2828
28.3633 28.4152 28.4434 28.4946 27.8274 27.8663
28.1209 28.1695 28.2595 28.33 28.3082 28.3794
28.0055 28.0452 28.2914 28.34 28.4294 28.5005
28.4783 28.5501 28.3871 28.4391 28.5217 28.5743
28.6064 28.6587 28.5585 28.6113 28.696 28.7495
28.7847 28.8387 28.1363 28.1738 28.4193 28.4645
28.559 28.6305 28.6046 28.6767 28.689 28.7378
28.8278 28.8784 28.9136 28.9646 
</DataArray>
<DataArray type="Float32" Name="Pressure (Pa)" format="ascii" RangeMin="0" RangeMax="0">
0 0 0 0 0 0
0 0 0 0 0 0
0 0 0 0 0 0
0 0 0 0 0 0
0 0 0 0 0 0
0 0 0 0 0 0
0 0 0 0 0 0
0 0 0 0 0 0
0 0 0 0 0 0
0 0 0 0 0 0
0 0 0 0 0 0
0 0 0 0 0 0
0 0 0 0 0 0
0 0 0 0 0 0
0 0 0 0 0 0
0 0 0 0 0 0
0 0 0 0 0 0
0 0 0 0 0 0
0 0 0 0 0 0
0 0 0 0 0 0
0 0 0 0 0 0
0 0 0 0 0 0
0 0 0 0 0 0
0 0 0 0 0 0
0 0 0 0 0 0
0 0 0 0 0 0
0 0 0 0 0 0
0 0 0 0 0 0
0 0 0 0 0 0
0 0 0 0 0 0
0 0 0 0 0 0
0 0 0 0 0 0
0 0 0 0 0 0
0 0 0 0 0 0
0 0 0 0 0 0
0 0 0 0 0 0
0 0 0 0 0 0
0 0 0 0 0 0
0 0 0 0 0 0
0 0 0 0 0 0
0 0 0 0 0 0
0 0 0 0 0 0
0 0 0 0 0 0
0 0 0 0 0 0
0 0 0 0 0 0
0 0 0 0 0 0
0 0 0 0 0 0
0 0 0 0 0 0
0 0 0 0 0 0
0 0 0 0 0 0
0 0 0 0 0 0
0 0 0 0 0 0
0 0 0 0 0 0
0 0 0 0 0 0
0 0 0 0 0 0
0 0 0 0 0 0
0 0 0 0 0 0
0 0 0 0 0 0
0 0 0 0 0 0
0 0 0 0 0 0
0 0 0 0 0 0
0 0 0 0 0 0
0 0 0 0 0 0
0 0 0 0 0 0
0 0 0 0 0 0
0 0 0 0 0 0
0 0 0 0 0 0
0 0 0 0 0 0
0 0 0 0 0 0
0 0 0 0 0 0
0 0 0 0 0 0
0 0 0 0 0 0
0 0 0 0 0 0
0 0 0 0 0 0
0 0 0 0 0 0
0 0 0 0 0 0
0 0 0 0 0 0
0 0 0 0 0 0
0 0 0 0 0 0
0 0 0 0 0 0
0 0 0 0 0 0
0 0 0 0 0 0
0 0 0 0 0 0
0 0 0 0 0 0
0 0 0 0 0 0
0 0 0 0 0 0
0 0 0 0 0 0
0 0 0 0 0 0
0 0 0 0 0 0
0 0 0 0 0 0
0 0 0 0 0 0
0 0 0 0 0 0
0 0 0 0 0 0
0 0 0 0 0 0
0 0 0 0 0 0
0 0 0 0 0 0
0 0 0 0 0 0
0 0 0 0 0 0
0 0 0 0 0 0
0 0 0 0 0 0
0 0 0 0 0 0
0 0 0 0 0 0
0 0 0 0 0 0
0 0 0 0 0 0
0 0 0 0 0 0
0 0 0 0 0 0
0 0 0 0 0 0
0 0 0 0 0 0
0 0 0 0 0 0
0 0 0 0 0 0
0 0 0 0 0 0
0 0 0 0 0 0
0 0 0 0 0 0
0 0 0 0 0 0
0 0 0 0 0 0
0 0 0 0 0 0
0 0 0 0 0 0
0 0 0 0 0 0
0 0 0 0 0 0
0 0 0 0 0 0
0 0 0 0 0 0
0 0 0 0 0 0
0 0 0 0 0 0
0 0 0 0 0 0
0 0 0 0 0 0
0 0 0 0 0 0
0 0 0 0 0 0
0 0 0 0 0 0
0 0 0 0 0 0
0 0 0 0 0 0
0 0 0 0 0 0
0 0 0 0 0 0
0 0 0 0 0 0
0 0 0 0 0 0
0 0 0 0 0 0
0 0 0 0 0 0
0 0 0 0 0 0
0 0 0 0 0 0
0 0 0 0 0 0
0 0 0 0 0 0
0 0 0 0 0 0
0 0 0 0 0 0
0 0 0 0 0 0
0 0 0 0 0 0
0 0 0 0 0 0
0 0 0 0 0 0
0 0 0 0 0 0
0 0 0 0 0 0
0 0 0 0 0 0
0 0 0 0 0 0
0 0 0 0 0 0
0 0 0 0 0 0
0 0 0 0 0 0
0 0 0 0 0 0
0 0 0 0 0 0
0 0 0 0 0 0
0 0 0 0 0 0
0 0 0 0 0 0
0 0 0 0 0 0
0 0 0 0 0 0
0 0 0 0 0 0
0 0 0 0 0 0
0 0 0 0 0 0
0 0 0 0 0 0
0 0 0 0 0 0
0 0 0 0 0 0
0 0 0 0 0 0
0 0 0 0 0 0
0 0 0 0 0 0
0 0 0 0 0 0
0 0 0 0 0 0
0 0 0 0 0 0
0 0 0 0 0 0
0 0 0 0 0 0
0 0 0 0 0 0
0 0 0 0 0 0
0 0 0 0 0 0
0 0 0 0 0 0
0 0 0 0 0 0
0 0 0 0 0 0
0 0 0 0 0 0
0 0 0 0 0 0
0 0 0 0 0 0
0 0 0 0 0 0
0 0 0 0 0 0
0 0 0 0 0 0
0 0 0 0 0 0
0 0 0 0 0 0
0 0 0 0 0 0
0 0 0 0 0 0
0 0 0 0 0 0
0 0 0 0 0 0
0 0 0 0 0 0
0 0 0 0 0 0
0 0 0 0 0 0
0 0 0 0 0 0
0 0 0 0 0 0
0 0 0 0 0 0
0 0 0 0 0 0
0 0 0 0 0 0
0 0 0 0 0 0
0 0 0 0 0 0
0 0 0 0 0 0
0 0 0 0 0 0
0 0 0 0 0 0
0 0 0 0 0 0
0 0 0 0 0 0
0 0 0 0 0 0
0 0 0 0 0 0
0 0 0 0 0 0
0 0 0 0 0 0
0 0 0 0 0 0
0 0 0 0 0 0
0 0 0 0 0 0
0 0 0 0 0 0
0 0 0 0 0 0
0 0 0 0 0 0
0 0 0 0 0 0
0 0 0 0 0 0
0 0 0 0 0 0
0 0 0 0 0 0
0 0 0 0 0 0
0 0 0 0 0 0
0 0 0 0 0 0
0 0 0 0 0 0
0 0 0 0 0 0
0 0 0 0 0 0
0 0 0 0 0 0
0 0 0 0 0 0
0 0 0 0 0 0
0 0 0 0 0 0
0 0 0 0 0 0
0 0 0 0 0 0
0 0 0 0 0 0
0 0 0 0 0 0
0 0 0 0 0 0
0 0 0 0 0 0
0 0 0 0 0 0
0 0 0 0 0 0
0 0 0 0 0 0
0 0 0 0 0 0
0 0 0 0 0 0
0 0 0 0 0 0
0 0 0 0 0 0
0 0 0 0 0 0
0 0 0 0 0 0
0 0 0 0 0 0
0 0 0 0 0 0
0 0 0 0 0 0
0 0 0 0 0 0
0 0 0 0 0 0
0 0 0 0 0 0
0 0 0 0 0 0
0 0 0 0 0 0
0 0 0 0 0 0
0 0 0 0 0 0
0 0 0 0 0 0
0 0 0 0 0 0
0 0 0 0 0 0
0 0 0 0 0 0
0 0 0 0 0 0
0 0 0 0 0 0
0 0 0 0 0 0
0 0 0 0 0 0
0 0 0 0 0 0
0 0 0 0 0 0
0 0 0 0 0 0
0 0 0 0 0 0
0 0 0 0 0 0
0 0 0 0 0 0
0 0 0 0 0 0
0 0 0 0 0 0
0 0 0 0 0 0
0 0 0 0 0 0
0 0 0 0 0 0
0 0 0 0 0 0
0 0 0 0 0 0
0 0 0 0 0 0
0 0 0 0 0 0
0 0 0 0 0 0
0 0 0 0 0 0
0 0 0 0 0 0
0 0 0 0 0 0
0 0 0 0 0 0
0 0 0 0 0 0
0 0 0 0 0 0
0 0 0 0 0 0
0 0 0 0 0 0
0 0 0 0 0 0
0 0 0 0 0 0
0 0 0 0 0 0
0 0 0 0 0 0
0 0 0 0 0 0
0 0 0 0 0 0
0 0 0 0 0 0
0 0 0 0 0 0
0 0 0 0 0 0
0 0 0 0 0 0
0 0 0 0 0 0
0 0 0 0 0 0
0 0 0 0 0 0
0 0 0 0 0 0
0 0 0 0 0 0
0 0 0 0 0 0
0 0 0 0 0 0
0 0 0 0 0 0
0 0 0 0 0 0
0 0 0 0 0 0
0 0 0 0 0 0
0 0 0 0 0 0
0 0 0 0 0 0
0 0 0 0 0 0
0 0 0 0 0 0
0 0 0 0 0 0
0 0 0 0 0 0
0 0 0 0 0 0
0 0 0 0 0 0
0 0 0 0 0 0
0 0 0 0 0 0
0 0 0 0 0 0
0 0 0 0 0 0
0 0 0 0 0 0
0 0 0 0 0 0
0 0 0 0 0 0
0 0 0 0 0 0
0 0 0 0 0 0
0 0 0 0 0 0
0 0 0 0 0 0
0 0 0 0 0 0
0 0 0 0 0 0
0 0 0 0 0 0
0 0 0 0 0 0
0 0 0 0 0 0
0 0 0 0 0 0
0 0 0 0 0 0
0 0 0 0 0 0
0 0 0 0 0 0
0 0 0 0 0 0
0 0 0 0 0 0
0 0 0 0 0 0
0 0 0 0 0 0
0 0 0 0 0 0
0 0 0 0 0 0
0 0 0 0 0 0
0 0 0 0 0 0
0 0 0 0 0 0
0 0 0 0 0 0
0 0 0 0 0 0
0 0 0 0 0 0
0 0 0 0 0 0
0 0 0 0 0 0
0 0 0 0 0 0
0 0 0 0 0 0
0 0 0 0 0 0
0 0 0 0 0 0
0 0 0 0 0 0
0 0 0 0 0 0
0 0 0 0 0 0
0 0 0 0 0 0
0 0 0 0 0 0
0 0 0 0 0 0
0 0 0 0 0 0
0 0 0 0 0 0
0 0 0 0 0 0
0 0 0 0 0 0
0 0 0 0 0 0
0 0 0 0 0 0
0 0 0 0 0 0
0 0 0 0 0 0
0 0 0 0 0 0
0 0 0 0 0 0
0 0 0 0 0 0
0 0 0 0 0 0
0 0 0 0 0 0
0 0 0 0 0 0
0 0 0 0 0 0
0 0 0 0 0 0
0 0 0 0 0 0
0 0 0 0 0 0
0 0 0 0 0 0
0 0 0 0 0 0
0 0 0 0 0 0
0 0 0 0 0 0
0 0 0 0 0 0
0 0 0 0 0 0
0 0 0 0 0 0
0 0 0 0 0 0
0 0 0 0 0 0
0 0 0 0 0 0
0 0 0 0 0 0
0 0 0 0 0 0
0 0 0 0 0 0
0 0 0 0 0 0
0 0 0 0 0 0
0 0 0 0 0 0
0 0 0 0 0 0
0 0 0 0 0 0
0 0 0 0 0 0
0 0 0 0 0 0
0 0 0 0 0 0
0 0 0 0 0 0
0 0 0 0 0 0
0 0 0 0 0 0
0 0 0 0 0 0
0 0 0 0 0 0
0 0 0 0 0 0
0 0 0 0 0 0
0 0 0 0 0 0
0 0 0 0 0 0
0 0 0 0 0 0
0 0 0 0 0 0
0 0 0 0 0 0
0 0 0 0 0 0
0 0 0 0 0 0
0 0 0 0 0 0
0 0 0 0 0 0
0 0 0 0 0 0
0 0 0 0 0 0
0 0 0 0 0 0
0 0 0 0 0 0
0 0 0 0 0 0
0 0 0 0 0 0
0 0 0 0 0 0
0 0 0 0 0 0
0 0 0 0 0 0
0 0 0 0 0 0
0 0 0 0 0 0
0 0 0 0 0 0
0 0 0 0 0 0
0 0 0 0 0 0
0 0 0 0 0 0
0 0 0 0 0 0
0 0 0 0 0 0
0 0 0 0 0 0
0 0 0 0 0 0
0 0 0 0 0 0
0 0 0 0 0 0
0 0 0 0 0 0
0 0 0 0 0 0
0 0 0 0 0 0
0 0 0 0 0 0
0 0 0 0 0 0
0 0 0 0 0 0
0 0 0 0 0 0
0 0 0 0 0 0
0 0 0 0 0 0
0 0 0 0 0 0
0 0 0 0 0 0
0 0 0 0 0 0
0 0 0 0 0 0
0 0 0 0 0 0
0 0 0 0 0 0
0 0 0 0 0 0
0 0 0 0 0 0
0 0 0 0 0 0
0 0 0 0 0 0
0 0 0 0 0 0
0 0 0 0 0 0
0 0 0 0 0 0
0 0 0 0 0 0
0 0 0 0 0 0
0 0 0 0 0 0
0 0 0 0 0 0
0 0 0 0 0 0
0 0 0 0 0 0
0 0 0 0 0 0
0 0 0 0 0 0
0 0 0 0 0 0
0 0 0 0 0 0
0 0 0 0 0 0
0 0 0 0 0 0
0 0 0 0 0 0
0 0 0 0 0 0
0 0 0 0 0 0
0 0 0 0 0 0
0 0 0 0 0 0
0 0 0 0 0 0
0 0 0 0 0 0
0 0 0 0 0 0
0 0 0 0 0 0
0 0 0 0 0 0
0 0 0 0 0 0
0 0 0 0 0 0
0 0 0 0 0 0
0 0 0 0 0 0
0 0 0 0 0 0
0 0 0 0 0 0
0 0 0 0 0 0
0 0 0 0 0 0
0 0 0 0 0 0
0 0 0 0 
</DataArray>
<DataArray type="Float32" Name="Velocity (m/s)" NumberOfComponents="3" format= "ascii" RangeMin="0" RangeMax="0">
0 0 0 0 0 0 
0 0 0 0 0 0 
0 0 0 0 0 0 
0 0 0 0 0 0 
0 0 0 0 0 0 
0 0 0 0 0 0 
0 0 0 0 0 0 
0 0 0 0 0 0 
0 0 0 0 0 0 
0 0 0 0 0 0 
0 0 0 0 0 0 
0 0 0 0 0 0 
0 0 0 0 0 0 
0 0 0 0 0 0 
0 0 0 0 0 0 
0 0 0 0 0 0 
0 0 0 0 0 0 
0 0 0 0 0 0 
0 0 0 0 0 0 
0 0 0 0 0 0 
0 0 0 0 0 0 
0 0 0 0 0 0 
0 0 0 0 0 0 
0 0 0 0 0 0 
0 0 0 0 0 0 