<VTKFile type="UnstructuredGrid" version="1.0" byte_order="LittleEndian" header_type="UInt64">
<UnstructuredGrid>
<Piece NumberOfPoints="10788" NumberOfCells="6900">
<PointData>
</PointData>
<CellData Scalars="Temperature (C)">
<DataArray type="Float32" Name="Temperature (C)" format="ascii" RangeMin="22.4335" RangeMax="25.8982">
23.4367 23.4519 23.4633 23.4777 23.2438 23.161
23.2527 23.1676 23.1279 23.0437 23.1342 23.0494
23.2994 23.2024 23.3104 23.2113 23.1643 23.0692
23.1727 23.0763 22.9025 22.9069 22.7831 22.7862
22.9186 22.9238 22.7933 22.7968 22.6867 22.6885
22.5955 22.5959 22.693 22.6951 22.5991 22.5996
22.5196 22.5191 22.4697 22.4696 22.5214 22.5207
22.4687 22.4678 22.4442 22.4447 22.4377 22.439
22.4411 22.4405 22.4335 22.4337 22.4482 22.4506
22.4843 22.4878 22.4435 22.4447 22.4794 22.4817
22.5431 22.5477 22.6237 22.6294 22.5385 22.5418
22.62 22.6245 22.7257 22.7326 22.8506 22.8585
22.7232 22.729 22.8493 22.8564 22.9973 23.0064
23.1683 23.1786 22.9977 23.0062 23.1714 23.1813
23.3657 23.3773 23.593 23.606 23.3723 23.3838
23.6038 23.617 23.8532 23.8678 24.1481 24.1646
23.8685 23.8836 24.1682 24.1855 24.4767 24.4954
24.8325 24.854 24.502 24.5217 24.8637 24.8866
25.2021 25.2274 25.5567 25.5877 25.2403 25.2671
25.6035 25.6359 25.7742 25.8101 25.832 25.8679
23.5177 23.5314 23.5774 23.5924 23.3565 23.2549
23.3679 23.2645 23.2148 23.1152 23.2241 23.1232
23.4196 23.3151 23.4317 23.3255 23.2738 23.1709
23.2839 23.1797 23.6819 23.6989 23.8156 23.8344
23.5227 23.4144 23.5358 23.4256 23.3716 23.2655
23.3825 23.275 23.6448 23.5323 23.6594 23.5449
23.4883 23.3795 23.5004 23.3904 22.9601 22.9661
22.832 22.8362 23.0116 23.0182 22.8821 22.8867
22.7303 22.7328 22.6348 22.6356 22.7802 22.7831
22.6848 22.6861 23.1045 23.112 22.9781 22.9838
23.219 23.228 23.0967 23.1046 22.8813 22.8859
22.7931 22.7967 23.0055 23.0125 22.9245 22.9308
23.9437 23.9642 24.0685 24.0902 23.7721 23.6584
23.7881 23.6725 23.6139 23.5043 23.6276 23.5167
23.9028 23.7903 23.9199 23.8057 23.7462 23.6375
23.7612 23.6513 24.1628 24.1847 24.2301 24.2526
24.0033 23.8923 24.0212 23.9086 23.8486 23.7411
23.8648 23.7561 24.0715 23.9608 24.0899 23.9778
23.9174 23.8103 23.9342 23.826 23.3449 23.3557
23.2262 23.236 23.4804 23.4928 23.3652 23.3767
23.1393 23.1484 23.0639 23.0725 23.2821 23.2932
23.2114 23.2221 23.586 23.5998 23.4731 23.4861
23.6563 23.6708 23.5448 23.5586 23.3923 23.4049
23.3242 23.3364 23.4654 23.4788 23.3988 23.412
24.3395 24.3628 24.4539 24.478 24.1756 24.0643
24.1947 24.082 24.0207 23.9136 24.0383 23.9301
24.2824 24.169 24.3024 24.1877 24.1248 24.0168
24.1433 24.0343 24.5474 24.5721 24.6511 24.6761
24.3694 24.2541 24.3901 24.2734 24.2093 24.1002
24.2285 24.1184 24.4654 24.3476 24.4867 24.3676
24.3021 24.1915 24.322 24.2106 23.7609 23.7764
23.6512 23.666 23.8646 23.8811 23.7564 23.7724
23.5737 23.5882 23.5093 23.5235 23.6807 23.6963
23.6184 23.6338 23.9482 23.9655 23.8412 23.858
24.0398 24.0579 23.9342 23.9519 23.7669 23.7834
23.7062 23.7225 23.8616 23.879 23.803 23.8203
24.7339 24.8009 24.7592 24.8265 24.8675 24.9265
24.8933 24.9525 24.5414 24.4215 24.6025 24.4809
24.5633 24.4421 24.6248 24.5019 24.3753 24.2638
24.4342 24.3219 24.3958 24.2834 24.4551 24.342
24.6626 24.5394 24.7151 24.5908 24.6852 24.5608
24.738 24.6126 24.4923 24.3795 24.5437 24.431
24.5136 24.4001 24.5653 24.452 24.9814 25.0077
24.9995 25.0251 24.763 24.6388 24.7863 24.6609
24.592 24.481 24.614 24.5024 24.778 24.657
24.801 24.6789 24.6117 24.5051 24.6336 24.5266
24.1125 24.1714 24.1313 24.1907 24.0085 24.069
24.0268 24.0879 24.2305 24.2847 24.2504 24.3051
24.1304 24.1878 24.1499 24.2079 23.9376 23.9998
23.9557 24.0186 23.881 23.9452 23.899 23.9639
24.0634 24.1238 24.0828 24.1437 24.0112 24.0742
24.0305 24.0942 24.3399 24.3607 24.2483 24.2688
24.3725 24.3935 24.2878 24.3086 24.1885 24.2089
24.143 24.1634 24.2333 24.2541 24.1926 24.2135
24.9998 25.0249 24.9796 25.0038 24.7789 24.6614
24.8018 24.6833 24.6177 24.5152 24.6396 24.5368
24.7672 24.6575 24.7897 24.6793 24.6169 24.5222
24.6388 24.5438 24.9234 24.9458 24.8753 24.8963
24.7309 24.6335 24.7526 24.6549 24.5975 24.5144
24.6192 24.5359 24.7003 24.6126 24.7216 24.6339
24.5804 24.5059 24.6019 24.5274 24.3893 24.4105
24.3099 24.331 24.4081 24.4295 24.3376 24.3589
24.2594 24.2805 24.2223 24.2434 24.2936 24.3148
24.2621 24.2834 24.4153 24.4367 24.3551 24.3765
24.4176 24.4391 24.3648 24.3863 24.3183 24.3398
24.2932 24.3147 24.3332 24.3548 24.3126 24.3343
24.8223 24.8421 24.7577 24.7772 24.6682 24.5905
24.6891 24.6117 24.562 24.4962 24.5834 24.5176
24.6301 24.5645 24.6509 24.5855 24.5403 24.4843
24.5616 24.5056 24.7127 24.7334 24.7156 24.7379
24.6022 24.5446 24.6232 24.5657 24.5234 24.4745
24.5447 24.496 24.5988 24.5407 24.6202 24.562
24.5196 24.4719 24.5411 24.4935 24.4183 24.4398
24.3727 24.3942 24.4185 24.44 24.3813 24.4029
24.3462 24.3679 24.33 24.3518 24.361 24.3828
24.3502 24.3722 24.4189 24.4406 24.3899 24.4117
24.4212 24.4429 24.3975 24.4193 24.3759 24.3979
24.371 24.3932 24.3882 24.4103 24.3881 24.4104
24.7436 24.7668 24.7604 24.7838 24.6081 24.545
24.6299 24.5666 24.5225 24.4727 24.5443 24.4944
24.6116 24.5454 24.6337 24.567 24.522 24.471
24.5438 24.4927 24.7657 24.7891 24.7607 24.7837
24.6108 24.5435 24.6329 24.5651 24.5199 24.4687
24.5417 24.4905 24.6034 24.5366 24.6254 24.5582
24.5134 24.4631 24.5352 24.4848 24.4236 24.4454
24.4032 24.4252 24.423 24.4448 24.4049 24.4268
24.3975 24.4196 24.4012 24.4235 24.4015 24.4235
24.4077 24.43 24.4219 24.4437 24.4054 24.4273
24.419 24.4408 24.4051 24.427 24.4034 24.4255
24.4112 24.4336 24.4054 24.4274 24.4155 24.4378
24.7337 24.7558 24.699 24.7198 24.5826 24.5199
24.6042 24.5413 24.4982 24.4518 24.5199 24.4735
24.5575 24.5005 24.5786 24.5216 24.4808 24.4392
24.5024 24.4608 24.6415 24.6611 24.6056 24.6262
24.5227 24.4744 24.5436 24.4955 24.4578 24.4227
24.4793 24.4443 24.5025 24.4585 24.5236 24.4798
24.4433 24.4113 24.465 24.4331 24.4125 24.4342
24.4018 24.4236 24.4052 24.4269 24.3979 24.4198
24.4045 24.4265 24.4168 24.4391 24.403 24.425
24.4174 24.4397 24.3951 24.4169 24.3916 24.4134
24.3866 24.4085 24.3848 24.4068 24.3992 24.4212
24.4158 24.4381 24.3938 24.4159 24.4118 24.4341
22.5541 22.5535 22.497 22.4955 22.6028 22.6026
22.5433 22.5422 22.4662 22.4644 22.4569 22.4557
22.5119 22.5109 22.5022 22.502 22.719 22.7219
22.6665 22.6692 22.8583 22.8642 22.8125 22.8184
22.6378 22.6408 22.6275 22.6311 22.7879 22.7942
22.7795 22.7862 22.4654 22.4652 22.5002 22.5012
22.5101 22.511 22.544 22.5463 22.5587 22.561
22.6404 22.6443 22.6018 22.6056 22.6827 22.6881
22.6334 22.6377 22.6641 22.6695 22.7858 22.7932
22.8153 22.8236 22.7186 22.7253 22.7956 22.8037
22.8674 22.8768 22.9407 22.9513 23.0041 23.0125
22.9641 22.9726 23.1565 23.1671 23.1208 23.1315
22.9435 22.9524 22.9377 22.947 23.1038 23.1148
23.1005 23.112 23.2721 23.2842 23.2389 23.2512
23.3483 23.3614 23.3167 23.33 23.2239 23.2365
23.2221 23.2351 23.3029 23.3165 23.3021 23.316
22.9458 22.9557 22.9756 22.9863 23.1105 23.1226
23.141 23.1538 23.0263 23.038 23.0965 23.1093
23.1906 23.2043 23.258 23.2726 23.2333 23.2467
23.264 23.2781 23.3139 23.3283 23.3447 23.3597
23.3126 23.3276 23.3776 23.3935 23.3925 23.4083
23.4559 23.4727 22.7443 22.7497 22.8712 22.8782
22.7864 22.7934 22.9129 22.9215 23.0211 23.0297
23.1963 23.2066 23.0631 23.0732 23.2382 23.25
22.8956 22.9052 23.0178 23.0288 23.0359 23.0479
23.1521 23.1654 23.1637 23.1763 23.3336 23.3476
23.2912 23.3059 23.4526 23.4686 23.3988 23.4107
23.6316 23.6453 23.4405 23.4539 23.6721 23.6873
23.8969 23.9125 24.1964 24.2142 23.9355 23.9525
24.2317 24.2507 23.5299 23.5455 23.7538 23.7709
23.6392 23.6567 23.8512 23.87 24.0079 24.0267
24.292 24.3126 24.0914 24.1119 24.3589 24.3808
23.1872 23.2012 23.297 23.3122 23.3438 23.3596
23.4469 23.4637 23.428 23.4446 23.5796 23.5973
23.5691 23.5873 23.7098 23.729 23.4596 23.4766
23.5575 23.5754 23.5353 23.553 23.6297 23.6484
23.6728 23.6919 23.8051 23.8252 23.7405 23.7602
23.8671 23.8879 23.7544 23.7736 23.9524 23.9727
23.8717 23.8922 24.0544 24.0759 24.1765 24.1983
24.4252 24.4482 24.2609 24.2838 24.4895 24.5134
23.9568 23.9781 24.1276 24.1499 24.0121 24.0339
24.1751 24.1979 24.3205 24.344 24.5339 24.5583
24.3589 24.3828 24.5623 24.5871 23.4612 23.4754
23.4317 23.4461 23.5724 23.5878 23.5449 23.5605
23.4196 23.4343 23.42 23.435 23.5342 23.5501
23.5355 23.5517 23.662 23.6784 23.6361 23.6526
23.761 23.7782 23.7368 23.7542 23.6265 23.6433
23.6285 23.6456 23.7284 23.7462 23.7311 23.7493
23.4326 23.4481 23.4633 23.4795 23.5486 23.5653
23.5789 23.5962 23.5099 23.5268 23.5709 23.5886
23.6238 23.6419 23.6821 23.7009 23.6419 23.6595
23.6717 23.6899 23.7448 23.7634 23.774 23.7931
23.7153 23.7342 23.7712 23.7908 23.8159 23.8357
23.8691 23.8896 23.841 23.9071 23.8591 23.926
23.8185 23.8862 23.8369 23.9053 23.9752 24.0407
23.9947 24.0607 23.9559 24.0233 23.9757 24.0435
23.8113 23.8799 23.83 23.8994 23.8146 23.8838
23.8336 23.9036 23.9508 24.0195 23.9709 24.0401
23.9554 24.025 23.9758 24.0459 24.1129 24.1334
24.0983 24.1191 24.1667 24.1877 24.1553 24.1766
24.0966 24.1176 24.1033 24.1247 24.1559 24.1774
24.1641 24.1859 23.8285 23.898 23.848 23.9182
23.8572 23.9262 23.8771 23.947 23.9699 24.0399
23.9907 24.0612 23.9978 24.0675 24.0191 24.0892
23.8978 23.9657 23.9184 23.987 23.9488 24.0148
23.97 24.0368 24.0361 24.1047 24.0579 24.127
24.0833 24.15 24.1057 24.1729 24.1189 24.1407
24.1464 24.1686 24.1807 24.203 24.2084 24.2311
24.1824 24.2052 24.2256 24.2489 24.2437 24.267
24.2853 24.3091 23.6464 23.6651 23.7355 23.7551
23.7535 23.7732 23.8372 23.8578 23.8394 23.86
23.9578 23.9793 23.9343 23.9558 24.0443 24.0667
23.8392 23.8597 23.9186 23.9398 23.9334 23.9547
24.0078 24.0298 24.0101 24.0322 24.1134 24.1364
24.093 24.1158 24.1888 24.2124 24.0927 24.1153
24.2441 24.2676 24.1694 24.1927 24.3094 24.3335
24.4146 24.4391 24.6033 24.6285 24.4669 24.4919
24.6413 24.667 24.2305 24.2543 24.3613 24.3858
24.297 24.3213 24.4176 24.4426 24.5083 24.5337
24.6714 24.6974 24.5532 24.579 24.7039 24.7302
24.0098 24.0732 24.0318 24.0959 24.0801 24.14
24.1028 24.1633 24.1389 24.2028 24.162 24.2263
24.202 24.2624 24.2257 24.2865 24.1601 24.2157
24.1836 24.2397 24.2498 24.3002 24.2739 24.3248
24.2731 24.329 24.2975 24.3538 24.3522 24.4027
24.3771 24.428 24.2753 24.2992 24.3307 24.3552
24.3325 24.3569 24.3847 24.4096 24.3922 24.4173
24.4597 24.4854 24.442 24.4675 24.5045 24.5305
24.3505 24.3948 24.3754 24.4201 24.4629 24.5002
24.4883 24.526 24.4404 24.4847 24.466 24.5107
24.5387 24.5759 24.5648 24.6023 24.5891 24.6187
24.6152 24.6451 24.7297 24.751 24.7563 24.7778
24.6491 24.6786 24.6758 24.7055 24.7729 24.794
24.7999 24.8212 24.5346 24.5609 24.6177 24.6444
24.5735 24.6001 24.65 24.6769 24.7114 24.7386
24.8172 24.8447 24.7363 24.7637 24.8343 24.8619
24.5288 24.5489 24.8882 24.9113 24.5593 24.5805
24.9125 24.9363 25.2619 25.2885 25.623 25.6544
25.2793 25.3063 25.6344 25.6654 24.6056 24.6281
24.9422 24.9668 24.6538 24.6775 24.9697 24.9951
25.2924 25.3197 25.6333 25.6637 25.2998 25.3273
25.6243 25.6544 25.8539 25.8881 25.8648 25.8982
25.8603 25.8925 25.8469 25.8784 24.6994 24.7239
24.993 25.0188 24.7418 24.7671 25.0124 25.0387
25.3016 25.3293 25.6093 25.639 25.2992 25.327
25.59 25.6194 24.7696 24.7953 25.0232 25.0497
24.7871 24.8131 25.0297 25.0564 25.2938 25.3215
25.572 25.601 25.2898 25.3175 25.5598 25.5887
25.8268 25.8575 25.802 25.8322 25.7796 25.8091
25.7643 25.7935 24.8123 24.8385 25.0388 25.0656
24.8351 24.8616 25.0462 25.0732 25.2837 25.3114
25.5418 25.5705 25.2766 25.3043 25.523 25.5515
24.8531 24.8798 25.0521 25.0792 24.8723 24.8992
25.0582 25.0854 25.271 25.2986 25.5081 25.5364
25.2645 25.2922 25.4914 25.5195 25.7417 25.7706
25.7183 25.7467 25.6996 25.7277 25.6786 25.7065
24.8875 24.9 24.9146 24.9272 25.0628 25.0666
25.0901 25.094 24.913 24.9254 24.9403 24.9529
25.0707 25.0744 25.0982 25.1021 25.2591 25.2547
25.2867 25.2823 25.4777 25.4665 25.5056 25.4944
25.2503 25.2459 25.2779 25.2735 25.4553 25.4442
25.4831 25.4719 24.9386 24.9663 25.0777 25.1054
24.9474 24.9752 25.0784 25.1061 25.2398 25.2675
25.4304 25.458 25.2327 25.2603 25.4165 25.444
25.6611 25.647 25.6887 25.6744 25.633 25.6195
25.6603 25.6466 25.6024 25.6294 25.5852 25.6118
24.1993 24.2206 24.1903 24.2119 24.2439 24.2654
24.2385 24.2603 24.1925 24.2143 24.2017 24.2239
24.2432 24.2653 24.2542 24.2767 24.2802 24.302
24.279 24.3011 24.3034 24.3253 24.3051 24.3274
24.2866 24.309 24.2996 24.3224 24.3148 24.3374
24.3292 24.3522 24.2192 24.2417 24.247 24.2701
24.2729 24.2957 24.3012 24.3244 24.282 24.3055
24.3226 24.3467 24.3356 24.3594 24.3749 24.3992
24.3198 24.3429 24.3488 24.3724 24.3505 24.3738
24.38 24.4039 24.383 24.4071 24.4213 24.4459
24.4142 24.4385 24.4518 24.4766 24.3246 24.3467
24.3292 24.3517 24.3495 24.3718 24.3579 24.3805
24.341 24.3638 24.3569 24.3801 24.3723 24.3953
24.3901 24.4134 24.3756 24.398 24.3882 24.411
24.3972 24.4197 24.4136 24.4366 24.4059 24.429
24.4259 24.4495 24.4341 24.4575 24.4562 24.48
24.3793 24.4029 24.4094 24.4335 24.414 24.4377
24.4449 24.4691 24.4435 24.4681 24.4805 24.5056
24.479 24.5037 24.5152 24.5404 24.4516 24.4755
24.4835 24.508 24.4837 24.5078 24.5166 24.5412
24.5177 24.5427 24.5532 24.5786 24.551 24.5761
24.5858 24.6114 24.3683 24.393 24.4184 24.4436
24.4185 24.4434 24.4657 24.4911 24.473 24.4988
24.5324 24.5587 24.5166 24.5426 24.5715 24.5979
24.463 24.4882 24.5075 24.5332 24.4922 24.5176
24.535 24.5609 24.5551 24.5813 24.6058 24.6325
24.5803 24.6067 24.6282 24.6551 24.5977 24.6245
24.6699 24.6971 24.6315 24.6584 24.6978 24.7251
24.7516 24.7792 24.8446 24.8724 24.7728 24.8005
24.8587 24.8865 24.6609 24.6881 24.7216 24.7491
24.68 24.7073 24.737 24.7645 24.7904 24.8182
24.8696 24.8975 24.8016 24.8294 24.8762 24.9041
24.5198 24.5454 24.5609 24.587 24.5531 24.5788
24.5922 24.6184 24.604 24.6306 24.6492 24.6762
24.6325 24.6592 24.6744 24.7015 24.5895 24.6154
24.6262 24.6526 24.6207 24.6468 24.6553 24.6818
24.6634 24.6903 24.7013 24.7286 24.6896 24.7166
24.7239 24.7512 24.6978 24.7253 24.7511 24.7788
24.719 24.7465 24.7677 24.7954 24.8116 24.8395
24.8817 24.9098 24.823 24.851 24.8876 24.9156
24.7413 24.7689 24.7846 24.8124 24.7595 24.7872
24.7977 24.8256 24.8339 24.8619 24.8918 24.9198
24.8413 24.8693 24.8929 24.9209 24.414 24.4366
24.4337 24.4568 24.423 24.4456 24.445 24.4681
24.4568 24.4803 24.4809 24.5047 24.4698 24.4933
24.4952 24.5191 24.4281 24.4508 24.4515 24.4746
24.4346 24.4572 24.4598 24.4829 24.4773 24.5009
24.5035 24.5275 24.4872 24.5107 24.5145 24.5384
24.5099 24.5342 24.5439 24.5686 24.5253 24.5497
24.56 24.5848 24.5785 24.6037 24.6128 24.6385
24.5947 24.62 24.6287 24.6545 24.5344 24.5588
24.5694 24.5943 24.5462 24.5706 24.5818 24.6067
24.6042 24.6296 24.638 24.6639 24.6167 24.6421
24.6501 24.676 24.438 24.4606 24.4649 24.488
24.4404 24.4631 24.4689 24.4921 24.4936 24.5171
24.5218 24.5458 24.4988 24.5223 24.5278 24.5518
24.4408 24.4634 24.471 24.4941 24.4381 24.4608
24.4694 24.4926 24.502 24.5256 24.532 24.5559
24.5014 24.525 24.532 24.556 24.5543 24.5787
24.5903 24.6152 24.561 24.5854 24.5973 24.6223
24.6252 24.6506 24.6582 24.6841 24.6321 24.6576
24.6647 24.6906 24.5658 24.5902 24.6024 24.6273
24.567 24.5913 24.6038 24.6287 24.637 24.6624
24.6689 24.6948 24.6381 24.6634 24.6693 24.6951
24.6465 24.6727 24.6791 24.7058 24.6616 24.6879
24.6929 24.7196 24.7108 24.7379 24.7418 24.7692
24.7228 24.7499 24.7515 24.7789 24.6703 24.6967
24.7008 24.7276 24.6816 24.708 24.7109 24.7377
24.7295 24.7567 24.7568 24.7842 24.738 24.7651
24.7632 24.7905 24.7734 24.8011 24.807 24.8348
24.7803 24.808 24.8105 24.8384 24.8452 24.8732
24.8909 24.9188 24.845 24.8729 24.8864 24.9142
24.7838 24.8115 24.8119 24.8398 24.7876 24.8153
24.8128 24.8405 24.844 24.8719 24.8826 24.9104
24.8413 24.8691 24.876 24.9036 24.689 24.7154
24.7171 24.7439 24.6947 24.7211 24.7217 24.7484
24.7426 24.7698 24.7658 24.7932 24.7457 24.7728
24.767 24.7943 24.6979 24.7241 24.7234 24.75
24.6972 24.7234 24.7214 24.7479 24.7455 24.7724
24.7644 24.7916 24.7417 24.7686 24.7585 24.7855
24.7879 24.8155 24.8102 24.8378 24.7867 24.8142
24.8062 24.8338 24.8354 24.8631 24.8663 24.8938
24.8282 24.8558 24.8555 24.8828 24.7813 24.8086
24.7975 24.8248 24.7728 24.8 24.7859 24.813
24.8155 24.8428 24.8382 24.8653 24.8004 24.8274
24.819 24.8458 24.9525 24.9805 25.0782 25.1061
24.9591 24.987 25.0774 25.1052 25.2276 25.2553
25.4071 25.4346 25.2196 25.2472 25.3928 25.4202
24.963 24.991 25.0741 25.1019 24.9648 24.9928
25.071 25.0988 25.2094 25.237 25.3764 25.4036
25.2015 25.229 25.3642 25.3913 25.5735 25.6001
25.556 25.5824 25.5363 25.5625 25.5219 25.5479
24.9656 24.9937 25.067 25.0948 24.9655 24.9935
25.0609 25.0886 25.1929 25.2204 25.3513 25.3784
25.1808 25.2082 25.334 25.3609 24.9626 24.9905
25.0507 25.0783 24.9569 24.9848 25.038 25.0655
25.1635 25.1907 25.3104 25.337 25.1439 25.1709
25.2848 25.3113 25.5069 25.5327 25.4869 25.5125
25.46 25.4854 25.4314 25.4566 24.9484 24.9762
25.0228 25.0502 24.9392 24.9669 25.0087 25.0359
25.1221 25.149 25.2573 25.2835 25.1032 25.1299
25.2342 25.2601 24.9325 24.9601 24.9987 25.0259
24.9215 24.949 24.9832 25.0102 25.0902 25.1168
25.2184 25.2442 25.0702 25.0966 25.1945 25.22
25.4009 25.4259 25.3755 25.4003 25.3582 25.383
25.3322 25.3567 24.9077 24.935 24.965 24.9918
24.8928 24.9199 24.9458 24.9724 25.0477 25.0738
25.168 25.1933 25.0243 25.0502 25.1409 25.1659
24.8706 24.8974 24.9183 24.9446 24.8467 24.8732
24.8895 24.9155 24.9915 25.017 25.1033 25.1279
24.9579 24.983 25.0651 25.0894 25.3035 25.3278
25.2741 25.2982 25.2335 25.2573 25.1923 25.2158
24.612 24.6342 24.6432 24.6665 24.503 24.4565
24.5248 24.4782 24.4405 24.4068 24.4625 24.4289
24.5147 24.4615 24.5372 24.4837 24.4433 24.4051
24.4657 24.4276 24.6608 24.6847 24.6659 24.6898
24.5183 24.4608 24.5411 24.4832 24.4412 24.4004
24.4638 24.4229 24.5168 24.4576 24.5397 24.4801
24.4375 24.3956 24.4603 24.4184 24.381 24.403
24.3791 24.4011 24.376 24.3983 24.373 24.3952
24.3883 24.4104 24.407 24.4292 24.382 24.4042
24.4007 24.4231 24.3695 24.3919 24.3659 24.3882
24.3643 24.3869 24.3606 24.3831 24.3747 24.397
24.3935 24.416 24.3695 24.392 24.3885 24.411
24.6598 24.6833 24.6301 24.6528 24.5077 24.4481
24.5304 24.4707 24.428 24.386 24.4508 24.4088
24.4838 24.428 24.5062 24.4504 24.4092 24.3704
24.432 24.3932 24.5921 24.6134 24.529 24.5491
24.455 24.4046 24.4771 24.4269 24.3878 24.3533
24.4104 24.376 24.4152 24.3736 24.4368 24.3956
24.3597 24.3316 24.3822 24.3543 24.3552 24.3779
24.3521 24.3747 24.3429 24.3657 24.3415 24.3642
24.3614 24.384 24.3806 24.4032 24.3516 24.3743
24.3714 24.3941 24.33 24.3529 24.3307 24.3535
24.3139 24.3369 24.317 24.3401 24.3419 24.3647
24.3622 24.3851 24.3293 24.3524 24.3502 24.3732
24.4892 24.5101 24.4939 24.5163 24.3916 24.3545
24.4134 24.3767 24.3421 24.317 24.3648 24.3398
24.3902 24.3505 24.4124 24.3729 24.3372 24.3103
24.3601 24.3333 24.525 24.5486 24.5436 24.5676
24.401 24.3544 24.4238 24.3772 24.3389 24.3074
24.3621 24.3305 24.4052 24.3543 24.4282 24.3772
24.3373 24.3031 24.3606 24.3263 24.3018 24.3249
24.3058 24.3291 24.2937 24.3169 24.2971 24.3205
24.3184 24.3417 24.3391 24.3624 24.3092 24.3326
24.3292 24.3527 24.2873 24.3107 24.2893 24.3128
24.2813 24.3047 24.2827 24.3062 24.3004 24.3241
24.3196 24.3432 24.2934 24.3171 24.312 24.3357
24.5493 24.5733 24.5438 24.5673 24.4043 24.3517
24.4274 24.3746 24.3342 24.299 24.3575 24.3222
24.3961 24.3433 24.4189 24.3661 24.3259 24.2906
24.349 24.3137 24.5145 24.537 24.4766 24.4976
24.3734 24.3246 24.3958 24.3472 24.3086 24.2767
24.3316 24.2996 24.3459 24.3028 24.3677 24.3251
24.2888 24.2612 24.3116 24.284 24.2768 24.3002
24.278 24.3017 24.269 24.2924 24.2706 24.2943
24.2886 24.3124 24.3069 24.3308 24.2813 24.3051
24.2995 24.3234 24.2584 24.2817 24.2616 24.2853
24.2469 24.2703 24.2519 24.2756 24.2729 24.2968
24.2912 24.3152 24.264 24.2879 24.2824 24.3064
24.4169 24.4364 24.3906 24.4109 24.3109 24.2764
24.3321 24.2984 24.2653 24.2437 24.2878 24.2664
24.299 24.2672 24.3204 24.2892 24.2568 24.2368
24.2794 24.2596 24.3902 24.4119 24.4127 24.4356
24.2989 24.266 24.3208 24.2883 24.2552 24.2341
24.278 24.257 24.3088 24.271 24.3312 24.2937
24.2586 24.2339 24.2816 24.257 24.2342 24.2574
24.2409 24.2646 24.2278 24.2511 24.2343 24.2581
24.2535 24.2774 24.2718 24.2958 24.2465 24.2705
24.2641 24.2883 24.2238 24.2472 24.2294 24.2532
24.2204 24.2439 24.2243 24.2482 24.2409 24.265
24.2578 24.2821 24.2348 24.259 24.2509 24.2752
24.4512 24.4751 24.4743 24.4987 24.3255 24.2799
24.3486 24.3029 24.2648 24.2344 24.2881 24.2576
24.332 24.281 24.3553 24.3041 24.2642 24.2302
24.2875 24.2535 24.4805 24.5048 24.4712 24.4949
24.3308 24.2778 24.3541 24.301 24.2603 24.2251
24.2838 24.2484 24.3192 24.2662 24.3422 24.2892
24.2487 24.2136 24.272 24.2368 24.216 24.2396
24.2177 24.2417 24.2092 24.2328 24.2097 24.2337
24.2269 24.251 24.2419 24.2662 24.2182 24.2424
24.2326 24.257 24.2033 24.227 24.2036 24.2276
24.1925 24.216 24.1933 24.2173 24.2119 24.2362
24.2261 24.2506 24.2019 24.2261 24.2161 24.2405
24.4293 24.4516 24.3908 24.4117 24.2869 24.2393
24.3093 24.2619 24.2238 24.1931 24.2468 24.2161
24.2591 24.2168 24.2811 24.2393 24.2032 24.1768
24.2261 24.1997 24.3444 24.3641 24.2833 24.3024
24.2286 24.1927 24.2501 24.2149 24.1812 24.1595
24.204 24.1823 24.1905 24.1625 24.2117 24.1846
24.1538 24.1378 24.1764 24.1605 24.1765 24.1999
24.1795 24.2035 24.1641 24.1876 24.1691 24.193
24.1892 24.2134 24.204 24.2284 24.1798 24.204
24.1951 24.2195 24.1511 24.1746 24.1582 24.1821
24.1345 24.1579 24.144 24.1679 24.1699 24.1941
24.1858 24.2102 24.1569 24.1811 24.1734 24.1978
24.2344 24.2545 24.2309 24.2526 24.1582 24.1353
24.1795 24.1573 24.1283 24.1159 24.1508 24.1386
24.1482 24.1231 24.1701 24.1454 24.1153 24.1015
24.1381 24.1244 24.2524 24.2751 24.2628 24.2858
24.1505 24.119 24.1729 24.1416 24.1092 24.0911
24.1322 24.1141 24.1479 24.1125 24.1704 24.1352
24.1015 24.0812 24.1245 24.1042 24.116 24.1393
24.1271 24.1509 24.1008 24.1242 24.1117 24.1355
24.1407 24.1649 24.1575 24.1819 24.1251 24.1493
24.1416 24.166 24.0874 24.1108 24.097 24.1209
24.0759 24.0993 24.0849 24.1088 24.1098 24.1339
24.1257 24.15 24.0973 24.1214 24.1128 24.137
24.434 24.4566 24.4662 24.4892 24.4282 24.4509
24.4609 24.484 24.4986 24.5221 24.529 24.5529
24.4939 24.5173 24.5245 24.5483 24.4212 24.4438
24.4542 24.4772 24.4163 24.439 24.4494 24.4724
24.4874 24.5108 24.5183 24.542 24.4828 24.5061
24.5137 24.5375 24.5644 24.5887 24.602 24.6268
24.5596 24.5838 24.5972 24.6219 24.636 24.6613
24.6666 24.6923 24.6309 24.656 24.6608 24.6864
24.5535 24.5776 24.5911 24.6157 24.549 24.5731
24.5865 24.6111 24.6245 24.6495 24.6539 24.6793
24.6197 24.6447 24.6488 24.6742 24.4087 24.4314
24.442 24.465 24.3997 24.4225 24.433 24.4561
24.4755 24.4989 24.5065 24.5303 24.4665 24.4898
24.4975 24.5212 24.3907 24.4136 24.424 24.4472
24.3786 24.4017 24.4116 24.4348 24.4574 24.4808
24.4882 24.5119 24.4444 24.4678 24.4745 24.4982
24.5419 24.5659 24.5793 24.6038 24.5327 24.5567
24.5698 24.5942 24.6121 24.637 24.6406 24.6659
24.6022 24.627 24.6301 24.6553 24.5232 24.5471
24.5599 24.5842 24.5083 24.5322 24.5441 24.5684
24.5917 24.6164 24.6189 24.6439 24.575 24.5996
24.6012 24.626 24.6935 24.7196 24.7164 24.7428
24.6867 24.7127 24.7084 24.7346 24.7351 24.7618
24.7499 24.7768 24.7256 24.752 24.7385 24.7651
24.6791 24.7049 24.6998 24.7259 24.6736 24.6993
24.6937 24.7197 24.7159 24.7422 24.7275 24.7539
24.709 24.7353 24.7197 24.7461 24.7619 24.7888
24.7722 24.7991 24.7482 24.7749 24.7558 24.7825
24.7833 24.8102 24.7982 24.8248 24.7639 24.7904
24.7751 24.8014 24.7356 24.7621 24.7413 24.7678
24.7268 24.7532 24.7313 24.7576 24.7471 24.7734
24.7558 24.7818 24.7356 24.7619 24.7426 24.7685
24.6647 24.6903 24.6839 24.7097 24.6534 24.6788
24.6716 24.6973 24.6981 24.7242 24.7075 24.7337
24.6848 24.7107 24.6929 24.7189 24.6413 24.6666
24.6586 24.6841 24.6224 24.6475 24.6383 24.6637
24.6706 24.6963 24.6775 24.7032 24.6489 24.6744
24.6542 24.6797 24.7131 24.7393 24.7158 24.7419
24.697 24.7229 24.6979 24.7238 24.718 24.744
24.7225 24.7481 24.6981 24.7238 24.7002 24.7256
24.68 24.7058 24.6793 24.7049 24.655 24.6805
24.6521 24.6775 24.6775 24.7029 24.6773 24.7024
24.6479 24.6731 24.6449 24.6696 24.3671 24.3903
24.3992 24.4226 24.3563 24.3797 24.3872 24.4108
24.4311 24.4546 24.4603 24.484 24.4179 24.4415
24.4461 24.4699 24.3455 24.3692 24.3751 24.3988
24.3371 24.3609 24.3656 24.3894 24.4044 24.4281
24.4312 24.455 24.3936 24.4175 24.4192 24.4431
24.4932 24.517 24.5279 24.5519 24.4783 24.5021
24.5116 24.5357 24.5576 24.582 24.5826 24.6072
24.54 24.5642 24.5636 24.5881 24.4618 24.4856
24.4934 24.5174 24.4485 24.4723 24.4786 24.5025
24.5202 24.5443 24.5422 24.5665 24.5039 24.5279
24.5247 24.5488 24.3316 24.3555 24.3595 24.3834
24.3237 24.3476 24.3507 24.3747 24.3867 24.4107
24.4115 24.4355 24.3768 24.4009 24.4004 24.4246
24.3149 24.339 24.341 24.3651 24.3057 24.3298
24.3309 24.3552 24.366 24.3902 24.3885 24.4127
24.3549 24.3792 24.3763 24.4007 24.4399 24.4638
24.4689 24.4929 24.4274 24.4514 24.455 24.479
24.4933 24.5173 24.5132 24.5373 24.4778 24.5018
24.4963 24.5204 24.4141 24.4382 24.4399 24.464
24.401 24.4252 24.4252 24.4494 24.4611 24.4851
24.4781 24.502 24.4448 24.4688 24.4602 24.4841
24.6025 24.6274 24.6172 24.6422 24.5823 24.6069
24.5956 24.6204 24.6264 24.6515 24.6302 24.6553
24.6035 24.6284 24.6059 24.6309 24.5595 24.5839
24.5715 24.5961 24.5408 24.5651 24.5518 24.5761
24.578 24.6027 24.5791 24.6038 24.5574 24.5818
24.5575 24.5819 24.6293 24.6544 24.6246 24.6495
24.6035 24.6284 24.5971 24.6219 24.6182 24.6429
24.6125 24.6369 24.5888 24.6132 24.5809 24.6049
24.5754 24.6 24.5674 24.5918 24.5528 24.5772
24.5438 24.568 24.5573 24.5814 24.5472 24.5709
24.5324 24.5563 24.5209 24.5443 24.5285 24.5527
24.5387 24.563 24.5104 24.5344 24.5194 24.5435
24.5437 24.568 24.5432 24.5675 24.5233 24.5474
24.5219 24.546 24.4908 24.5147 24.4986 24.5225
24.4714 24.4952 24.4779 24.5017 24.5014 24.5253
24.4991 24.5229 24.4796 24.5034 24.4762 24.5
24.5379 24.5621 24.5282 24.5522 24.5156 24.5396
24.5049 24.5288 24.516 24.5398 24.5035 24.5268
24.4917 24.5152 24.4778 24.5009 24.492 24.5157
24.4804 24.504 24.4683 24.4919 24.4559 24.4793
24.4662 24.4895 24.4511 24.474 24.4407 24.4638
24.4244 24.4471 24.8217 24.8479 24.86 24.8856
24.7945 24.8204 24.8284 24.8537 24.9237 24.9485
25.0266 25.0505 24.8876 24.912 24.9861 25.0096
24.7722 24.7979 24.8028 24.8279 24.7571 24.7826
24.7856 24.8105 24.8586 24.8828 24.9538 24.9769
24.8392 24.8632 24.9321 24.955 25.1509 25.1741
25.1073 25.1302 25.0726 25.0951 25.0492 25.0716
24.7342 24.7594 24.7596 24.7842 24.7092 24.7341
24.7315 24.7558 24.8099 24.8335 24.8994 24.922
24.7785 24.8019 24.8647 24.8869 24.6836 24.7082
24.7028 24.7268 24.6478 24.6721 24.6634 24.687
24.7466 24.7696 24.8293 24.8512 24.703 24.7257
24.7813 24.8028 25.0141 25.0362 24.9766 24.9984
24.9385 24.96 24.8868 24.9079 24.6125 24.6363
24.6246 24.6477 24.578 24.6016 24.5869 24.6097
24.6603 24.6824 24.7343 24.7552 24.6188 24.6406
24.6886 24.7092 24.5417 24.5649 24.5474 24.5699
24.5135 24.5365 24.517 24.5392 24.5756 24.597
24.6411 24.6613 24.5423 24.5635 24.6044 24.6243
24.836 24.8567 24.7866 24.807 24.7352 24.7553
24.6953 24.7151 24.495 24.5178 24.4969 24.5191
24.4676 24.4901 24.4674 24.4893 24.5205 24.5415
24.5803 24.6 24.4882 24.5089 24.5447 24.5641
24.4393 24.4617 24.4371 24.4588 24.4112 24.4333
24.4071 24.4285 24.4553 24.4758 24.5085 24.5276
24.4226 24.4429 24.4726 24.4915 24.6691 24.6887
24.6305 24.6499 24.5911 24.6103 24.5522 24.5712
24.2944 24.3186 24.3184 24.3427 24.2859 24.3102
24.3089 24.3333 24.3411 24.3655 24.3618 24.3862
24.3304 24.3549 24.3499 24.3744 24.2788 24.3032
24.301 24.3255 24.271 24.2955 24.2923 24.3169
24.3217 24.3463 24.3402 24.3648 24.3121 24.3368
24.3298 24.3545 24.3844 24.4088 24.4056 24.4298
24.3705 24.395 24.3898 24.4141 24.4228 24.4468
24.436 24.4599 24.4051 24.4292 24.4165 24.4404
24.3597 24.3842 24.3776 24.402 24.3481 24.3728
24.3647 24.3892 24.3916 24.4158 24.4016 24.4255
24.3774 24.4016 24.3859 24.4098 24.261 24.2855
24.2813 24.3059 24.2511 24.2756 24.2707 24.2953
24.3001 24.3249 24.3168 24.3415 24.2887 24.3135
24.3046 24.3293 24.2444 24.269 24.2635 24.2883
24.2341 24.2586 24.2528 24.2775 24.2811 24.306
24.2964 24.3213 24.2698 24.2946 24.2843 24.3092
24.3339 24.3586 24.3489 24.3735 24.3205 24.3453
24.3342 24.3588 24.3599 24.3842 24.3666 24.3907
24.3437 24.368 24.3488 24.3728 24.3117 24.3365
24.3245 24.3492 24.2987 24.3235 24.3103 24.335
24.3331 24.3575 24.3371 24.3613 24.3175 24.3419
24.3201 24.3443 24.4451 24.4689 24.4498 24.4734
24.4239 24.4475 24.427 24.4505 24.4499 24.4735
24.4453 24.4688 24.4259 24.4492 24.4203 24.4435
24.4076 24.4313 24.4094 24.4329 24.3904 24.4141
24.3909 24.4143 24.4072 24.4305 24.4008 24.4239
24.3874 24.4106 24.3799 24.4029 24.4363 24.4596
24.423 24.4461 24.4104 24.4335 24.3966 24.4195
24.4068 24.4296 24.3894 24.4118 24.3798 24.4024
24.3616 24.3838 24.3903 24.4132 24.3759 24.3987
24.3687 24.3915 24.3538 24.3764 24.3586 24.3811
24.3399 24.362 24.336 24.3584 24.3168 24.3388
24.3693 24.3931 24.368 24.3914 24.3498 24.3735
24.3468 24.3701 24.3629 24.386 24.3541 24.377
24.3402 24.3632 24.3301 24.3528 24.3371 24.3609
24.333 24.3564 24.3185 24.3424 24.3129 24.3364
24.3254 24.3484 24.3144 24.3372 24.3038 24.3269
24.2914 24.3142 24.3418 24.3645 24.3262 24.3487
24.3168 24.3393 24.3006 24.3228 24.3079 24.3301
24.2882 24.31 24.2819 24.3038 24.2619 24.2835
24.3005 24.3229 24.2838 24.3059 24.2763 24.2987
24.2588 24.2809 24.2647 24.2866 24.2445 24.266
24.2392 24.261 24.2186 24.24 24.2222 24.2467
24.2406 24.2654 24.2134 24.238 24.2317 24.2565
24.2572 24.282 24.2711 24.296 24.2479 24.2728
24.2614 24.2864 24.2042 24.2288 24.2224 24.2471
24.192 24.2165 24.2099 24.2347 24.2383 24.2632
24.2513 24.2763 24.2254 24.2503 24.238 24.2629
24.2845 24.3094 24.2949 24.3196 24.2742 24.2991
24.2837 24.3085 24.3007 24.3252 24.3018 24.326
24.2886 24.3132 24.2887 24.313 24.2635 24.2885
24.2722 24.297 24.2494 24.2743 24.2571 24.2819
24.2762 24.3009 24.2754 24.2997 24.26 24.2846
24.2579 24.2823 24.176 24.2005 24.1936 24.2182
24.1596 24.1841 24.1766 24.2012 24.2085 24.2333
24.2203 24.2452 24.1908 24.2156 24.2018 24.2267
24.143 24.1675 24.1592 24.1838 24.1295 24.1539
24.1449 24.1694 24.1725 24.1972 24.1826 24.2074