<VTKFile type="UnstructuredGrid" version="1.0" byte_order="LittleEndian" header_type="UInt64">
<UnstructuredGrid>
<Piece NumberOfPoints="4746" NumberOfCells="2958">
<PointData>
</PointData>
<CellData Scalars="Temperature (C)">
<DataArray type="Float32" Name="Temperature (C)" format="ascii" RangeMin="24.723" RangeMax="30.6011">
24.9215 24.9265 24.8859 24.873 24.8834 24.8714
24.9326 24.9383 24.9735 24.9873 24.8984 24.886
24.8965 24.8849 24.9472 24.9368 24.9583 24.9476
24.8397 24.8347 24.8544 24.8499 24.9114 24.9213
24.8151 24.8102 24.8306 24.8265 24.8904 24.9012
25.0498 25.0648 25.0334 25.0266 25.0473 25.0404
25.1266 25.1439 25.1648 25.1811 25.1834 25.1999
25.1166 25.1122 25.1337 25.1293 25.1576 25.175
25.1543 25.1721 25.1762 25.1939 25.1729 25.1911
25.1923 25.2114 25.1871 25.1846 25.2065 25.204
25.2132 25.2325 25.2099 25.2081 25.2296 25.2279
25.0094 25.0231 25.1005 25.1176 25.145 25.164
25.1639 25.1832 24.9922 25.0068 25.0852 25.103
25.1308 25.1503 25.1503 25.1702 25.1773 25.197
25.2026 25.2227 25.1641 25.1844 25.1906 25.2115
24.8086 24.8047 24.8243 24.8216 24.8846 24.897
24.8071 24.8042 24.8229 24.8213 24.8829 24.8966
24.8069 24.8051 24.8225 24.8223 24.8817 24.8966
24.8072 24.8065 24.8226 24.8236 24.8804 24.8965
24.9852 25.0011 25.0757 25.0945 25.1201 25.1391
25.1404 25.1597 24.9811 24.9981 25.0679 25.0875
25.1099 25.1279 25.131 25.1493 25.1526 25.1737
25.1786 25.2003 25.1407 25.1625 25.1654 25.1877
24.9763 24.9944 25.0579 25.0785 25.0959 25.112
25.1177 25.1341 24.97 24.9892 25.0435 25.0652
25.074 25.0867 25.0959 25.1088 25.1234 25.1458
25.1451 25.1682 25.0953 25.1182 25.1111 25.1346
25.1941 25.2136 25.1919 25.1906 25.2122 25.2108
25.1266 25.1457 25.1229 25.1208 25.1429 25.1408
25.0307 25.0486 25.0216 25.0169 25.0394 25.0345
24.9344 24.9512 24.9244 24.9195 24.9411 24.936
25.186 25.2066 25.1139 25.1341 25.1756 25.1971
25.1034 25.1246 25.0025 25.0182 24.9051 24.9205
24.9879 25.0036 24.8912 24.9066 24.8499 24.8655
24.8404 24.8359 24.856 24.8514 24.7939 24.809
24.7846 24.7803 24.7998 24.7954 24.7691 24.7842
24.7587 24.754 24.7739 24.769 24.7769 24.7925
24.7634 24.7572 24.779 24.7726 24.823 24.8378
24.7684 24.7832 24.8112 24.826 24.7575 24.7723
24.7409 24.7556 24.7399 24.7547 24.7284 24.7432
24.723 24.7378 25.1654 25.1878 25.0971 25.1193
25.1534 25.1765 25.0892 25.1123 24.9864 25.004
24.8937 24.9111 24.9824 25.0002 24.8945 24.9119
25.1338 25.1576 25.0755 25.0993 25.0991 25.1234
25.0487 25.0732 24.9777 24.9967 24.8973 24.9161
24.9645 24.9836 24.8953 24.9142 24.8175 24.8343
24.7654 24.7823 24.8223 24.8393 24.7725 24.7895
24.7354 24.7521 24.7273 24.744 24.7428 24.7596
24.7336 24.7504 24.831 24.8495 24.7847 24.8031
24.8369 24.8554 24.7954 24.814 24.7563 24.7743
24.7469 24.765 24.7696 24.7878 24.7613 24.7795
24.8079 24.8084 24.8229 24.8253 24.8789 24.896
24.81 24.8115 24.8246 24.8282 24.8789 24.8971
24.8135 24.816 24.8279 24.8325 24.8809 24.8999
24.8198 24.8233 24.834 24.8397 24.8858 24.9057
24.9622 24.9824 25.0256 25.0478 25.046 25.0526
25.0682 25.0743 24.9569 24.9779 25.0125 25.0354
25.0266 25.0297 25.0494 25.0519 25.0553 25.0753
25.0578 25.0771 25.0292 25.0493 25.0245 25.0437
24.9548 24.9766 25.005 25.0284 25.0154 25.0167
25.0387 25.0395 24.9563 24.9789 25.002 25.0262
25.0092 25.0088 25.0332 25.0322 25.0146 25.0356
25.0065 25.0265 25.0053 25.0265 24.9939 25.014
24.8309 24.8354 24.845 24.8518 24.896 24.9168
24.8473 24.8525 24.8613 24.869 24.9117 24.9334
24.87 24.876 24.8841 24.8925 24.934 24.9564
24.9005 24.9073 24.9145 24.9238 24.964 24.9872
24.9638 24.9872 25.006 25.0308 25.011 25.0096
25.0357 25.0337 24.9777 25.0018 25.0171 25.0426
25.02 25.0174 25.0454 25.042 25.0053 25.0272
24.9919 25.0128 25.0119 25.034 24.996 25.0169
24.9983 25.0231 25.0353 25.0614 25.0366 25.0332
25.0626 25.0584 25.0267 25.0523 25.0614 25.0882
25.0608 25.0563 25.0873 25.082 25.0271 25.0499
25.0096 25.0313 25.049 25.0721 25.029 25.0507
25.0423 25.0622 25.0023 25.0223 25.0065 25.0263
24.9735 24.9933 24.947 24.967 24.894 24.9139
24.9327 24.9527 24.8913 24.9113 24.9872 25.0078
24.9585 24.9791 24.9736 24.9942 24.9481 24.9688
24.9258 24.9466 24.8925 24.9133 24.9214 24.9422
24.8947 24.9155 24.8454 24.8651 24.8098 24.8294
24.8517 24.8714 24.8219 24.8416 24.7874 24.8066
24.781 24.8003 24.8033 24.8227 24.7995 24.8188
24.8601 24.8806 24.8357 24.8562 24.8691 24.8897
24.8503 24.8709 24.821 24.8412 24.8199 24.84
24.84 24.8602 24.8422 24.8623 24.9705 24.9919
24.9471 24.9684 24.9732 24.9945 24.9508 24.9721
24.9242 24.9456 24.9023 24.9238 24.9303 24.9518
24.9119 24.9334 24.9851 25.007 24.9628 24.9847
25.0023 25.0242 24.9795 25.0014 24.9436 24.9655
24.9276 24.9495 24.9609 24.9828 24.9466 24.9685
24.8823 24.9036 24.8691 24.8903 24.896 24.9172
24.887 24.9081 24.8634 24.8842 24.8692 24.8901
24.885 24.9059 24.8943 24.9151 24.9148 24.9364
24.9092 24.9308 24.9362 24.9578 24.9334 24.9549
24.9106 24.9319 24.9228 24.9441 24.9375 24.9588
24.9524 24.9737 24.9407 24.9482 24.9546 24.9647
25.0036 25.0274 24.9933 25.0016 25.0071 25.0181
25.0556 25.0801 25.0623 25.0716 25.0761 25.0881
25.1239 25.1493 25.153 25.1632 25.1668 25.1798
25.214 25.2403 25.0647 25.0909 25.097 25.1243
25.0947 25.0893 25.1218 25.1156 25.1149 25.1419
25.1448 25.1727 25.1403 25.1337 25.1681 25.1606
25.0814 25.1051 25.0595 25.082 25.1245 25.1485
25.0998 25.1223 25.1815 25.2093 25.2089 25.2375
25.2028 25.1952 25.2311 25.2228 25.2701 25.2987
25.2951 25.3245 25.2867 25.2779 25.3159 25.3061
25.1853 25.2101 25.1585 25.1819 25.2666 25.2917
25.2367 25.2602 25.2713 25.2825 25.2851 25.2992
25.3321 25.3593 25.423 25.435 25.4371 25.452
25.4844 25.5125 25.6123 25.6247 25.6267 25.6423
25.6751 25.704 25.8373 25.8503 25.8524 25.8687
25.9027 25.9329 25.387 25.4164 25.41 25.4401
25.4002 25.3906 25.43 25.4196 25.5389 25.5692
25.5604 25.5914 25.5488 25.5381 25.5795 25.5677
25.3786 25.4047 25.3469 25.3715 25.5249 25.5511
25.4903 25.5147 25.7302 25.7613 25.7512 25.7829
25.7392 25.7283 25.7705 25.7586 25.9598 25.9922
25.9815 26.0143 25.969 25.9576 26.0015 25.9889
25.715 25.7422 25.6798 25.7054 25.9435 25.971
25.9069 25.9325 25.0299 25.0524 25.0059 25.0284
25.0671 25.0896 25.0414 25.0639 24.987 25.0093
24.9736 24.9959 25.0219 25.0443 25.0092 25.0315
25.1221 25.1454 25.0943 25.1176 25.1968 25.2201
25.1669 25.1902 25.0737 25.0966 25.0611 25.084
25.1452 25.1681 25.1328 25.1557 24.9651 24.9871
24.9645 24.9865 25.0021 25.0241 25.0035 25.0255
24.9711 24.9929 24.9886 25.0104 25.0123 25.0341
25.0322 25.0541 25.0551 25.0776 25.0583 25.0808
25.1278 25.1503 25.1326 25.1551 25.0693 25.0916
25.0916 25.1139 25.1456 25.1679 25.1701 25.1924
25.3033 25.3274 25.2713 25.2954 25.4437 25.4677
25.4102 25.434 25.2483 25.2718 25.2359 25.2594
25.3866 25.4099 25.3746 25.3978 25.631 25.6559
25.5966 25.6214 25.8579 25.8826 25.8239 25.8486
25.5725 25.5966 25.5611 25.585 25.8006 25.8246
25.7902 25.8141 25.2318 25.2549 25.2382 25.2612
25.3715 25.3944 25.3795 25.4022 25.2531 25.276
25.2799 25.3028 25.3962 25.4188 25.4249 25.4475
25.5592 25.5827 25.5686 25.5921 25.7897 25.8132
25.8005 25.824 25.5869 25.6103 25.6172 25.6407
25.8203 25.8437 25.8519 25.8753 26.0909 26.1052
26.1069 26.1248 26.1603 26.1926 26.3617 26.3774
26.3794 26.3989 26.4383 26.4734 26.6223 26.6401
26.6432 26.6648 26.7123 26.7515 26.7731 26.7899
26.7971 26.818 26.8812 26.922 26.2214 26.2558
26.2466 26.2811 26.237 26.2273 26.2712 26.2604
26.5073 26.5442 26.54 26.5767 26.5359 26.5287
26.5721 26.5637 26.2148 26.2447 26.1819 26.21
26.5183 26.5488 26.491 26.5193 26.7962 26.8359
26.8442 26.8831 26.8545 26.8562 26.8932 26.8946
26.9971 27.035 27.0599 27.0971 27.0773 27.083
27.1142 27.1196 26.8549 26.8923 26.8479 26.8846
27.0859 27.1217 27.0894 27.1247 26.1362 26.1633
26.1051 26.132 26.4534 26.4806 26.4274 26.4545
26.0838 26.11 26.0754 26.1015 26.4099 26.4363
26.4043 26.4305 26.825 26.8607 26.8055 26.8406
27.0756 27.1099 27.0605 27.0945 26.793 26.8275
26.79 26.8242 27.0517 27.0852 27.0511 27.0844
26.077 26.1028 26.0897 26.1154 26.4084 26.4344
26.4231 26.449 26.1112 26.137 26.1443 26.17
26.4465 26.4724 26.481 26.5069 26.7973 26.8313
26.8139 26.8477 27.061 27.0941 27.0793 27.1123
26.8394 26.8733 26.8755 26.9093 27.1069 27.14
27.1446 27.1775 26.2206 26.2456 26.2291 26.2566
26.3166 26.3352 26.5499 26.5814 26.1797 26.2025
26.1883 26.2121 26.2693 26.2859 26.1046 26.1253
26.1132 26.1324 26.1891 26.2029 26.493 26.5224
26.4093 26.4367 26.9105 26.9548 27.1938 27.2388
26.825 26.861 26.7368 26.7723 27.0981 27.1338
27.0058 27.0411 26.0277 26.0471 26.0364 26.054
26.1076 26.119 25.9624 25.9814 25.9702 25.9876
26.0401 26.0497 26.3264 26.3521 26.2576 26.2818
25.9105 25.9296 25.9164 25.9347 25.9878 25.9968
25.8785 25.8982 25.8846 25.9045 25.9561 25.9655
26.2022 26.2248 26.1674 26.1888 26.6539 26.6877
26.5883 26.6219 26.9223 26.9561 26.8576 26.8911
26.5332 26.565 26.5 26.5317 26.8029 26.8347
26.769 26.8007 27.4388 27.4847 27.6621 27.708
27.3418 27.3792 27.2478 27.2848 27.563 27.6001
27.4671 27.5038 27.8793 27.9284 28.0484 28.0976
27.7776 27.8177 27.6796 27.7193 27.9437 27.9834
27.844 27.8833 27.1644 27.2002 27.1 27.1355
27.3828 27.4183 27.3176 27.3529 27.0458 27.08
27.0108 27.0449 27.2626 27.2966 27.2259 27.2598
27.5936 27.6321 27.527 27.5653 27.7568 27.795
27.6892 27.7272 27.4703 27.5073 27.4317 27.4686
27.6312 27.668 27.5911 27.6279 28.1813 28.2312
28.2733 28.3232 28.0772 28.1181 27.9772 28.0178
28.1681 28.2087 28.0681 28.1084 28.3226 28.3734
28.3369 28.3878 28.2181 28.2598 28.1193 28.1609
28.2326 28.2742 28.1357 28.1772 27.8902 27.9298
27.8224 27.8619 27.9818 28.0212 27.9145 27.9539
27.764 27.8025 27.723 27.7615 27.8563 27.8947
27.8149 27.8533 28.0351 28.076 27.9694 28.0103
28.0541 28.095 27.9907 28.0317 27.9125 27.9525
27.8714 27.9115 27.9357 27.9759 27.8955 27.9358
28.3194 28.3708 28.2505 28.3022 28.2175 28.26
28.1243 28.1668 28.1512 28.1939 28.064 28.1067
28.1204 28.1731 27.9146 27.9678 28.0267 28.0704
27.9492 27.9929 27.831 27.8751 27.768 27.8122
28.0475 28.0897 27.9882 28.0306 27.9945 28.0369
27.9416 27.9842 27.9368 27.9785 27.8983 27.9402
27.8955 27.9375 27.86 27.9021 27.8911 27.9347
27.8478 27.8916 27.7258 27.7698 27.6956 27.7399
27.81 27.8535 27.7791 27.8228 27.6689 27.7128
27.6444 27.6884 27.625 27.673 27.2736 27.3192
27.5598 27.6 27.5172 27.5575 27.2342 27.2745
27.2168 27.2571 26.8292 26.8616 26.3869 26.4126
26.82 26.8495 26.8319 26.8615 26.4117 26.4408
26.4507 26.4801 27.4979 27.5393 27.4852 27.5268
27.2226 27.2642 27.2296 27.2714 27.4745 27.5169
27.4584 27.5009 27.2359 27.2786 27.2296 27.2723
26.871 26.9045 26.9019 26.9357 26.5158 26.5492
26.5675 26.6013 26.9313 26.9682 26.9368 26.9738
26.6154 26.6523 26.6317 26.6688 25.9915 26.0117
25.6848 25.704 26.0186 26.0384 26.0738 26.0939
25.7201 25.7395 25.7894 25.8091 25.4362 25.4503
25.2551 25.2678 25.1704 25.1176 25.1831 25.1303
25.4828 25.4984 25.5688 25.588 25.3082 25.3233
25.2258 25.1747 25.241 25.19 25.3962 25.4138
25.3144 25.2637 25.332 25.2813 26.1595 26.1846
26.2288 26.2543 25.888 25.9129 25.97 25.9954
26.2943 26.3244 26.3208 26.3511 26.0468 26.0769
26.0818 26.1121 25.6739 25.6975 25.7676 25.7941
25.4982 25.5186 25.415 25.3632 25.4354 25.3836
25.5923 25.6152 25.5087 25.4567 25.5316 25.4795
25.8517 25.8825 25.8972 25.9304 25.6765 25.7027
25.5939 25.5428 25.62 25.5689 25.7263 25.7552
25.6465 25.5982 25.6754 25.627 25.0362 25.0511
24.8306 24.8474 24.8098 24.8007 24.8266 24.8174
24.9336 24.9517 24.8915 24.8756 24.9098 24.8936
25.0987 25.1158 25.1885 25.2076 25.0249 25.045
24.9811 24.9639 25.0013 24.984 25.121 25.1427
25.0757 25.0573 25.0974 25.0787 24.7764 24.7927
24.8369 24.8533 24.7514 24.7678 24.8008 24.8173
24.9211 24.9401 25.0099 25.0291 24.8779 24.8969
24.9613 24.9805 25.2856 25.3068 25.3786 25.4016
25.22 25.2434 25.1752 25.157 25.1987 25.1802
25.3187 25.3435 25.2756 25.2575 25.3003 25.2819
25.4684 25.4937 25.5346 25.5622 25.431 25.4575
25.3937 25.3773 25.4201 25.4034 25.5648 25.5929
25.5363 25.5216 25.5643 25.5492 25.1099 25.1315
25.2097 25.2315 25.059 25.0806 25.1571 25.1789
25.3324 25.3565 25.4777 25.5019 25.2791 25.3031
25.4223 25.4464 24.7504 24.7683 24.7938 24.8118
24.7538 24.7718 24.7936 24.8118 24.8647 24.8849
24.9439 24.9642 24.8608 24.8811 24.937 24.9574
24.7647 24.7838 24.8019 24.821 24.7784 24.7975
24.8141 24.8333 24.8656 24.8866 24.9392 24.9603
24.8757 24.8968 24.9474 24.9686 25.0384 25.0609
25.1341 25.1568 25.0291 25.0517 25.1226 25.1454
25.2532 25.278 25.3929 25.4178 25.2392 25.264
25.3757 25.4007 25.0287 25.0519 25.1201 25.1434
25.035 25.0583 25.1243 25.1477 25.2339 25.2592
25.3669 25.3923 25.2355 25.2609 25.3652 25.3906
25.771 25.8018 25.74 25.7246 25.7707 25.7548
26.0499 26.0832 26.0147 25.9969 26.0478 26.0293
26.3676 26.4034 26.3299 26.3108 26.3654 26.3457
26.6521 26.6897 26.6128 26.5926 26.6499 26.629
25.6789 25.7059 25.9431 25.9703 25.6191 25.646
25.8754 25.9023 26.2533 26.283 26.5316 26.5616
26.1793 26.2088 26.4541 26.4837 26.9448 26.9873
27.2876 27.3298 26.9053 26.885 26.9473 26.9263
27.2498 27.2301 27.2915 27.2711 27.6514 27.6957
27.917 27.9617 27.6177 27.5994 27.6614 27.6422
27.8909 27.8765 27.935 27.9199 28.0611 28.1906
28.1084 28.2382 28.4666 28.5138 28.0397 28.1735
28.028 28.164 28.0865 28.2206 28.0744 28.2109
28.4581 28.4529 28.5048 28.4994 28.877 28.9267
28.8784 28.8777 28.9275 28.9266 26.8233 26.8583
27.1697 27.2045 27.5418 27.5763 27.8311 27.8674
26.7441 26.7788 27.0923 27.1267 27.4706 27.5046
27.7695 27.8053 27.9916 28.1346 28.0357 28.1802
28.4358 28.4814 28.8735 28.9218 27.936 28.0848
27.9795 28.1297 28.3985 28.4433 28.8551 28.9027
25.5841 25.6115 25.8338 25.8611 25.5625 25.5898
25.8066 25.8339 26.1311 26.1605 26.4018 26.4314
26.0984 26.1279 26.3656 26.3952 25.5486 25.5763
25.7868 25.8143 25.542 25.5697 25.7739 25.8015
26.0722 26.1017 26.335 26.3645 26.0528 26.0822
26.3105 26.34 26.6891 26.7234 27.0371 27.071
27.4183 27.4518 27.7218 27.757 26.6502 26.6844
26.9969 27.0308 27.379 27.4123 27.6843 27.7194
27.8911 28.0428 27.934 28.0872 28.3635 28.4077
28.8335 28.8806 27.8549 28.0081 27.8975 28.052
28.3326 28.3764 28.8118 28.8585 26.6156 26.6495
26.9597 26.9933 27.3409 27.374 27.6469 27.6816
26.5866 26.6205 26.9268 26.9604 27.3055 27.3385
27.6105 27.6451 27.8181 27.9721 27.8602 28.0155
28.2992 28.3425 28.7858 28.8321 27.7815 27.9355
27.8232 27.9786 28.2636 28.3065 28.7553 28.8011
29.2499 29.3022 29.259 29.262 29.3107 29.3134
29.523 29.5776 29.6505 29.7139 29.7047 29.768
29.5374 29.543 29.5914 29.5967 29.6675 29.7323
29.6742 29.7395 29.721 29.7856 29.7275 29.7927
29.7639 29.818 29.8797 29.9334 29.7833 29.7911
29.8368 29.8444 29.902 29.9111 29.9551 29.9639
29.9462 29.9993 29.9737 29.9847 30.0265 30.0373
29.2684 29.3196 29.5568 29.6105 29.6913 29.7584
29.7446 29.8115 29.2682 29.319 29.5702 29.6237
29.7113 29.7816 29.7642 29.8344 29.8114 29.8645
29.9346 29.9874 30.0129 30.0651 29.8373 29.8901
29.9672 30.0195 30.0538 30.1055 29.2611 29.3116
29.5747 29.628 29.7215 29.7949 29.7743 29.8474
29.2505 29.3008 29.5733 29.6265 29.7248 29.8006
29.7774 29.8529 29.853 29.9056 29.989 30.041
30.0834 30.1348 29.8608 29.9131 30.0018 30.0536
30.103 30.154 29.2345 29.2846 29.5659 29.619
29.7217 29.7998 29.7741 29.8519 29.2121 29.262
29.5507 29.6037 29.7101 29.7901 29.7625 29.8421
29.8619 29.914 30.0077 30.0592 30.1152 30.166
29.8537 29.9058 30.0034 30.0549 30.1155 30.1661
24.7979 24.8179 24.833 24.853 24.8174 24.8374
24.8527 24.8728 24.893 24.9147 24.9634 24.9852
24.9123 24.9341 24.9821 25.0039 24.8388 24.8594
24.8748 24.8955 24.8631 24.8837 24.9005 24.9211
24.9343 24.9566 25.0039 25.0262 24.9606 24.9828
25.0305 25.0527 25.0493 25.073 25.1369 25.1607
25.0669 25.0907 25.1533 25.1771 25.2456 25.2714
25.3719 25.3978 25.2601 25.2858 25.3835 25.4093
25.088 25.1121 25.1733 25.1976 25.1142 25.1383
25.1987 25.2228 25.2784 25.3045 25.3992 25.4253
25.3021 25.3281 25.4201 25.4462 24.8923 24.9134
24.9314 24.9526 24.9199 24.9409 24.9611 24.9821
24.9927 25.0153 25.0631 25.0857 25.0236 25.0462
25.0948 25.1175 24.9507 24.9722 24.9938 25.0153
24.9827 25.0042 25.0279 25.0495 25.0579 25.0809
25.1301 25.1532 25.0938 25.1169 25.1676 25.1907
25.1464 25.1708 25.2301 25.2546 25.1782 25.2026
25.2614 25.2859 25.3319 25.3582 25.4474 25.4737
25.3619 25.3882 25.4751 25.5015 25.2137 25.2384
25.2967 25.3216 25.252 25.2768 25.3354 25.3603
25.3963 25.423 25.5076 25.5343 25.4346 25.4613
25.5446 25.5714 25.5438 25.5718 25.7692 25.797
25.551 25.5789 25.7701 25.7979 26.0407 26.0702
26.2925 26.3221 26.0343 26.0638 26.2801 26.3096
25.5624 25.5905 25.7753 25.8033 25.5787 25.6067
25.7844 25.8124 26.0321 26.0617 26.2714 26.3011
26.0326 26.0623 26.2645 26.2943 26.5629 26.5966
26.8978 26.9312 27.2724 27.3052 27.5753 27.6097
26.5446 26.5784 26.8736 26.907 27.243 27.2759
27.5429 27.5773 27.7454 27.8989 27.7868 27.9416
28.2265 28.269 28.7209 28.7665 27.7115 27.8639
27.7528 27.9065 28.1897 28.2322 28.6845 28.7301
26.5296 26.5632 26.8521 26.8854 27.2159 27.2487
27.5122 27.5466 26.5153 26.5491 26.8304 26.8639
27.1872 27.2203 27.4791 27.5138 27.6791 27.8302
27.7204 27.8728 28.1537 28.1961 28.6476 28.6933
27.6438 27.7931 27.6852 27.8358 28.1134 28.156
28.6054 28.6513 25.6007 25.6292 25.7983 25.8266
25.6242 25.6527 25.8149 25.8433 26.0367 26.0667
26.2599 26.2901 26.0452 26.0753 26.2615 26.2917
25.6531 25.6819 25.8381 25.8669 25.6875 25.7164
25.8678 25.8966 26.0612 26.0915 26.2709 26.3014
26.0846 26.115 26.2885 26.319 26.5029 26.5367
26.8102 26.8437 27.1596 27.1928 27.4466 27.4814
26.4978 26.5317 26.7975 26.8312 27.1397 27.173
27.4217 27.4567 27.6088 27.7562 27.6503 27.7989
28.0726 28.1152 28.5619 28.6078 27.5813 27.7265
27.6228 27.7692 28.0388 28.0815 28.5244 28.5703
26.5003 26.5342 26.7925 26.8262 27.1275 27.1608
27.4045 27.4395 26.5119 26.5458 26.797 26.8307
27.1247 27.1581 27.3967 27.4317 27.5616 27.7046
27.6029 27.7472 28.0126 28.0551 28.4939 28.5396
27.5511 27.6918 27.5923 27.7342 27.9953 28.0376
28.4715 28.517 25.0214 25.0434 25.0689 25.091
25.0675 25.0896 25.1175 25.1396 25.1369 25.1604
25.2124 25.2361 25.1877 25.2113 25.2653 25.289
25.1296 25.1521 25.182 25.2046 25.2106 25.2332
25.2654 25.288 25.2545 25.2786 25.3342 25.3584
25.3401 25.3642 25.4219 25.446 25.2979 25.3232
25.382 25.4073 25.3523 25.3775 25.4374 25.4627
25.4812 25.5082 25.5905 25.6176 25.537 25.5641
25.6459 25.6731 25.4227 25.4484 25.5089 25.5347
25.512 25.5376 25.5994 25.6251 25.6091 25.6366
25.718 25.7454 25.7002 25.7275 25.809 25.8363
25.3229 25.3461 25.3798 25.4031 25.4699 25.4928
25.5287 25.5516 25.4565 25.4811 25.54 25.5646
25.6067 25.631 25.6913 25.7156 25.6638 25.6876
25.7235 25.7474 25.8995 25.9234 25.9598 25.9836
25.8018 25.827 25.8864 25.9116 26.0378 26.063
26.1219 26.1472 25.6313 25.6574 25.7195 25.7456
25.7833 25.8089 25.8717 25.8974 25.8206 25.8483
25.9291 25.9568 25.9724 25.9997 26.0799 26.1072
25.9777 26.0043 26.0653 26.092 26.2122 26.2388
26.2985 26.3252 26.1646 26.1928 26.2702 26.2984
26.3959 26.4241 26.4991 26.5273 25.7313 25.7604
25.9075 25.9366 25.7852 25.8144 25.9581 25.9872
26.1187 26.1493 26.3169 26.3476 26.1642 26.1948
26.3574 26.388 25.856 25.8854 26.0258 26.0552
25.9459 25.9752 26.1129 26.1421 26.2272 26.258
26.4152 26.4461 26.3096 26.3402 26.4927 26.5234
26.5341 26.568 26.8121 26.8457 27.1327 27.166
27.3996 27.4344 26.569 26.6028 26.8402 26.8738
27.1538 27.187 27.4155 27.4502 27.5512 27.6895
27.5922 27.7317 27.9882 28.0303 28.4591 28.5042
27.5643 27.7003 27.6051 27.7422 27.994 28.0358
28.4586 28.5034 26.6211 26.6549 26.8854 26.9189
27.1916 27.2247 27.4477 27.4823 26.6931 26.7266
26.9502 26.9835 27.2487 27.2815 27.4989 27.5331
27.5935 27.7268 27.634 27.7684 28.0151 28.0565
28.4726 28.5168 27.6415 27.7719 27.6816 27.813
28.0539 28.0948 28.5025 28.546 26.0646 26.0942
26.2283 26.2578 26.2131 26.2423 26.3727 26.4018
26.4199 26.4508 26.5975 26.6283 26.5581 26.5886
26.7291 26.7597 26.4002 26.4303 26.5547 26.5847
26.6255 26.6554 26.7743 26.8043 26.7331 26.7645
26.8967 26.9282 26.9451 26.9765 27.101 27.1324
26.7913 26.8249 27.0402 27.0734 27.3292 27.362
27.5719 27.606 26.9156 26.9489 27.1546 27.1877
27.4324 27.4652 27.6663 27.7005 27.7103 27.8368
27.75 27.8776 28.1106 28.1512 28.5469 28.5899
27.7998 27.9218 27.8397 27.9628 28.1856 28.2266
28.6062 28.6494 27.0748 27.109 27.3027 27.3366
27.5676 27.6012 27.7908 27.8257 27.2703 27.3044
27.4862 27.5201 27.7371 27.7707 27.9493 27.9843
27.9182 28.0346 27.9585 28.076 28.2866 28.328
28.6888 28.7324 28.0706 28.1813 28.1113 28.2232
28.4205 28.4624 28.8021 28.846 29.1833 29.2333
29.5272 29.5804 29.6893 29.7706 29.7419 29.8229
29.1504 29.2005 29.4979 29.5515 29.6619 29.7442
29.7148 29.7969 29.8354 29.8877 29.9879 30.0396
30.1024 30.1531 29.8098 29.8626 29.9644 30.0166
30.0806 30.1318 29.1155 29.1661 29.4657 29.5199
29.6312 29.7143 29.6847 29.7676 29.0749 29.1258
29.4276 29.4823 29.5944 29.6783 29.6486 29.7322
29.7806 29.834 29.937 29.9898 30.055 30.1067
29.7452 29.7993 29.9032 29.9566 30.0222 30.0746
29.032 29.0832 29.3866 29.4418 29.5544 29.6388
29.6091 29.6932 28.994 29.0455 29.3496 29.4052
29.5179 29.6024 29.5729 29.6572 29.7061 29.7607
29.8648 29.9187 29.9826 30.0355 29.6697 29.7248
29.8284 29.8827 29.943 29.9963 28.9623 29.0137
29.3183 29.374 29.4866 29.5711 29.5418 29.6261
28.9378 28.9891 29.2937 29.3496 29.4621 29.5466
29.5174 29.6017 29.6384 29.6936 29.7966 29.8512
29.9082 29.9618 29.6138 29.6691 29.7716 29.8264
29.8812 29.935 28.9227 28.9737 29.2784 29.3341
29.4468 29.5313 29.502 29.5863 28.9188 28.9694
29.2742 29.3296 29.4427 29.5273 29.4976 29.582
29.5985 29.6538 29.7564 29.8111 29.8656 29.9194
29.5946 29.6497 29.7528 29.8073 29.8632 29.9167
28.9283 28.9782 29.2827 29.3376 29.451 29.5355
29.5053 29.5896 28.9516 29.0005 29.3033 29.3575
29.4702 29.5539 29.5237 29.6073 29.6028 29.6572
29.7608 29.8147 29.8714 29.9244 29.6205 29.6743
29.7765 29.8298 29.882 29.9346 28.9854 29.0338
29.3312 29.3853 29.4949 29.577 29.5485 29.6305
29.0307 29.0792 29.3684 29.4231 29.5283 29.6084
29.5825 29.6626 29.6421 29.6961 29.7943 29.848
29.8921 29.9453 29.6719 29.7268 29.82 29.8748
29.9114 29.9658 29.0968 29.1455 29.4249 29.48
29.5805 29.6586 29.6354 29.7135 29.1914 29.2402
29.5082 29.5637 29.6594 29.7355 29.7147 29.7909
29.7205 29.7763 29.865 29.9207 29.9518 30.0073
29.7961 29.8526 29.9375 29.9941 30.0223 30.0788
26.193 26.2193 26.2536 26.2798 26.5309 26.5572
26.5919 26.6182 26.3309 26.3583 26.414 26.4415
26.6687 26.6961 26.751 26.7785 26.9268 26.961
26.9884 27.0226 27.1973 27.2306 27.2593 27.2926
27.0646 27.0999 27.1466 27.1821 27.335 27.3691
27.4162 27.4502 26.5025 26.5312 26.5871 26.6158
26.8378 26.8665 26.9207 26.9494 26.682 26.712
26.7823 26.8123 27.0132 27.0432 27.1108 27.1407
27.2314 27.2678 27.3131 27.3499 27.4989 27.5337
27.5791 27.614 27.4028 27.4406 27.4984 27.5365
27.6667 27.7023 27.7602 27.7959 26.9043 26.936
27.0472 27.0788 27.2287 27.2603 27.366 27.3975
27.2099 27.2429 27.3574 27.3904 27.5207 27.5535
27.6601 27.693 27.612 27.6514 27.7449 27.7846
27.8711 27.9079 28.0006 28.0373 27.8919 27.9327
28.024 28.065 28.1425 28.1799 28.2695 28.307
27.5172 27.5526 27.7197 27.755 27.9544 27.9894
28.1526 28.1888 27.8103 27.8456 27.9991 28.0341
28.2161 28.2509 28.399 28.4352 28.2659 28.3694
28.3073 28.4118 28.5931 28.6355 28.9513 28.9957
28.5039 28.5995 28.5458 28.6425 28.806 28.849
29.1387 29.1832 28.1651 28.2084 28.3398 28.3827
28.5367 28.5795 28.6957 28.7385 28.4059 28.4451
28.5745 28.6133 28.7625 28.8008 28.9122 28.9502
28.7854 28.8688 28.8294 28.9128 29.0525 29.0961
29.3586 29.4034 28.9971 29.0766 29.036 29.1154
29.253 29.2913 29.5473 29.5858 29.3197 29.3685
29.6237 29.6792 29.7701 29.8443 29.8255 29.8999
29.484 29.5325 29.7728 29.8278 29.9139 29.986
29.9688 30.0412 29.9038 29.9607 30.0428 30.1001
30.1285 30.186 30.0442 30.1012 30.1808 30.2384
30.2691 30.3272 29.6805 29.7288 29.9511 30.0051
30.0847 30.1533 30.1387 30.2078 29.857 29.8984
30.1139 30.1593 30.2398 30.3031 30.2852 30.3491
30.2091 30.2662 30.3398 30.3979 30.4292 30.4886
30.3523 30.4009 30.4667 30.5182 30.5483 30.6011
</DataArray>
<DataArray type="Float32" Name="Pressure (Pa)" format="ascii" RangeMin="0" RangeMax="0">
0 0 0 0 0 0
0 0 0 0 0 0
0 0 0 0 0 0
0 0 0 0 0 0
0 0 0 0 0 0
0 0 0 0 0 0
0 0 0 0 0 0
0 0 0 0 0 0
0 0 0 0 0 0
0 0 0 0 0 0
0 0 0 0 0 0
0 0 0 0 0 0
0 0 0 0 0 0
0 0 0 0 0 0
0 0 0 0 0 0
0 0 0 0 0 0
0 0 0 0 0 0
0 0 0 0 0 0
0 0 0 0 0 0
0 0 0 0 0 0
0 0 0 0 0 0
0 0 0 0 0 0
0 0 0 0 0 0
0 0 0 0 0 0
0 0 0 0 0 0
0 0 0 0 0 0
0 0 0 0 0 0
0 0 0 0 0 0
0 0 0 0 0 0
0 0 0 0 0 0
0 0 0 0 0 0
0 0 0 0 0 0
0 0 0 0 0 0
0 0 0 0 0 0
0 0 0 0 0 0
0 0 0 0 0 0
0 0 0 0 0 0
0 0 0 0 0 0
0 0 0 0 0 0
0 0 0 0 0 0
0 0 0 0 0 0
0 0 0 0 0 0
0 0 0 0 0 0
0 0 0 0 0 0
0 0 0 0 0 0
0 0 0 0 0 0
0 0 0 0 0 0
0 0 0 0 0 0
0 0 0 0 0 0
0 0 0 0 0 0
0 0 0 0 0 0
0 0 0 0 0 0
0 0 0 0 0 0
0 0 0 0 0 0
0 0 0 0 0 0
0 0 0 0 0 0
0 0 0 0 0 0
0 0 0 0 0 0
0 0 0 0 0 0
0 0 0 0 0 0
0 0 0 0 0 0
0 0 0 0 0 0
0 0 0 0 0 0
0 0 0 0 0 0
0 0 0 0 0 0
0 0 0 0 0 0
0 0 0 0 0 0
0 0 0 0 0 0
0 0 0 0 0 0
0 0 0 0 0 0
0 0 0 0 0 0
0 0 0 0 0 0
0 0 0 0 0 0
0 0 0 0 0 0
0 0 0 0 0 0
0 0 0 0 0 0
0 0 0 0 0 0
0 0 0 0 0 0
0 0 0 0 0 0
0 0 0 0 0 0
0 0 0 0 0 0
0 0 0 0 0 0
0 0 0 0 0 0
0 0 0 0 0 0
0 0 0 0 0 0
0 0 0 0 0 0
0 0 0 0 0 0
0 0 0 0 0 0
0 0 0 0 0 0
0 0 0 0 0 0
0 0 0 0 0 0
0 0 0 0 0 0
0 0 0 0 0 0
0 0 0 0 0 0
0 0 0 0 0 0
0 0 0 0 0 0
0 0 0 0 0 0
0 0 0 0 0 0
0 0 0 0 0 0
0 0 0 0 0 0
0 0 0 0 0 0
0 0 0 0 0 0
0 0 0 0 0 0
0 0 0 0 0 0
0 0 0 0 0 0
0 0 0 0 0 0
0 0 0 0 0 0
0 0 0 0 0 0
0 0 0 0 0 0
0 0 0 0 0 0
0 0 0 0 0 0
0 0 0 0 0 0
0 0 0 0 0 0
0 0 0 0 0 0
0 0 0 0 0 0
0 0 0 0 0 0
0 0 0 0 0 0
0 0 0 0 0 0
0 0 0 0 0 0
0 0 0 0 0 0
0 0 0 0 0 0
0 0 0 0 0 0
0 0 0 0 0 0
0 0 0 0 0 0
0 0 0 0 0 0
0 0 0 0 0 0
0 0 0 0 0 0
0 0 0 0 0 0
0 0 0 0 0 0
0 0 0 0 0 0
0 0 0 0 0 0
0 0 0 0 0 0
0 0 0 0 0 0
0 0 0 0 0 0
0 0 0 0 0 0
0 0 0 0 0 0
0 0 0 0 0 0
0 0 0 0 0 0
0 0 0 0 0 0
0 0 0 0 0 0
0 0 0 0 0 0
0 0 0 0 0 0
0 0 0 0 0 0
0 0 0 0 0 0
0 0 0 0 0 0
0 0 0 0 0 0
0 0 0 0 0 0
0 0 0 0 0 0
0 0 0 0 0 0
0 0 0 0 0 0
0 0 0 0 0 0
0 0 0 0 0 0
0 0 0 0 0 0
0 0 0 0 0 0
0 0 0 0 0 0
0 0 0 0 0 0
0 0 0 0 0 0
0 0 0 0 0 0
0 0 0 0 0 0
0 0 0 0 0 0
0 0 0 0 0 0
0 0 0 0 0 0
0 0 0 0 0 0
0 0 0 0 0 0
0 0 0 0 0 0
0 0 0 0 0 0
0 0 0 0 0 0
0 0 0 0 0 0
0 0 0 0 0 0
0 0 0 0 0 0
0 0 0 0 0 0
0 0 0 0 0 0
0 0 0 0 0 0
0 0 0 0 0 0
0 0 0 0 0 0
0 0 0 0 0 0
0 0 0 0 0 0
0 0 0 0 0 0
0 0 0 0 0 0
0 0 0 0 0 0
0 0 0 0 0 0
0 0 0 0 0 0
0 0 0 0 0 0
0 0 0 0 0 0
0 0 0 0 0 0
0 0 0 0 0 0
0 0 0 0 0 0
0 0 0 0 0 0
0 0 0 0 0 0
0 0 0 0 0 0
0 0 0 0 0 0
0 0 0 0 0 0
0 0 0 0 0 0
0 0 0 0 0 0
0 0 0 0 0 0
0 0 0 0 0 0
0 0 0 0 0 0
0 0 0 0 0 0
0 0 0 0 0 0
0 0 0 0 0 0
0 0 0 0 0 0
0 0 0 0 0 0
0 0 0 0 0 0
0 0 0 0 0 0
0 0 0 0 0 0
0 0 0 0 0 0
0 0 0 0 0 0
0 0 0 0 0 0
0 0 0 0 0 0
0 0 0 0 0 0
0 0 0 0 0 0
0 0 0 0 0 0
0 0 0 0 0 0
0 0 0 0 0 0
0 0 0 0 0 0
0 0 0 0 0 0
0 0 0 0 0 0
0 0 0 0 0 0
0 0 0 0 0 0
0 0 0 0 0 0
0 0 0 0 0 0
0 0 0 0 0 0
0 0 0 0 0 0
0 0 0 0 0 0
0 0 0 0 0 0
0 0 0 0 0 0
0 0 0 0 0 0
0 0 0 0 0 0
0 0 0 0 0 0
0 0 0 0 0 0
0 0 0 0 0 0
0 0 0 0 0 0
0 0 0 0 0 0
0 0 0 0 0 0
0 0 0 0 0 0
0 0 0 0 0 0
0 0 0 0 0 0
0 0 0 0 0 0
0 0 0 0 0 0
0 0 0 0 0 0
0 0 0 0 0 0
0 0 0 0 0 0
0 0 0 0 0 0
0 0 0 0 0 0
0 0 0 0 0 0
0 0 0 0 0 0
0 0 0 0 0 0
0 0 0 0 0 0
0 0 0 0 0 0
0 0 0 0 0 0
0 0 0 0 0 0
0 0 0 0 0 0
0 0 0 0 0 0
0 0 0 0 0 0
0 0 0 0 0 0
0 0 0 0 0 0
0 0 0 0 0 0
0 0 0 0 0 0
0 0 0 0 0 0
0 0 0 0 0 0
0 0 0 0 0 0
0 0 0 0 0 0
0 0 0 0 0 0
0 0 0 0 0 0
0 0 0 0 0 0
0 0 0 0 0 0
0 0 0 0 0 0
0 0 0 0 0 0
0 0 0 0 0 0
0 0 0 0 0 0
0 0 0 0 0 0
0 0 0 0 0 0
0 0 0 0 0 0
0 0 0 0 0 0
0 0 0 0 0 0
0 0 0 0 0 0
0 0 0 0 0 0
0 0 0 0 0 0
0 0 0 0 0 0
0 0 0 0 0 0
0 0 0 0 0 0
0 0 0 0 0 0
0 0 0 0 0 0
0 0 0 0 0 0
0 0 0 0 0 0
0 0 0 0 0 0
0 0 0 0 0 0
0 0 0 0 0 0
0 0 0 0 0 0
0 0 0 0 0 0
0 0 0 0 0 0
0 0 0 0 0 0
0 0 0 0 0 0
0 0 0 0 0 0
0 0 0 0 0 0
0 0 0 0 0 0
0 0 0 0 0 0
0 0 0 0 0 0
0 0 0 0 0 0
0 0 0 0 0 0
0 0 0 0 0 0
0 0 0 0 0 0
0 0 0 0 0 0
0 0 0 0 0 0
0 0 0 0 0 0
0 0 0 0 0 0
0 0 0 0 0 0
0 0 0 0 0 0
0 0 0 0 0 0
0 0 0 0 0 0
0 0 0 0 0 0
0 0 0 0 0 0
0 0 0 0 0 0
0 0 0 0 0 0
0 0 0 0 0 0
0 0 0 0 0 0
0 0 0 0 0 0
0 0 0 0 0 0
0 0 0 0 0 0
0 0 0 0 0 0
0 0 0 0 0 0
0 0 0 0 0 0
0 0 0 0 0 0
0 0 0 0 0 0
0 0 0 0 0 0
0 0 0 0 0 0
0 0 0 0 0 0
0 0 0 0 0 0
0 0 0 0 0 0
0 0 0 0 0 0
0 0 0 0 0 0
0 0 0 0 0 0
0 0 0 0 0 0
0 0 0 0 0 0
0 0 0 0 0 0
0 0 0 0 0 0
0 0 0 0 0 0
0 0 0 0 0 0
0 0 0 0 0 0
0 0 0 0 0 0
0 0 0 0 0 0
0 0 0 0 0 0
0 0 0 0 0 0
0 0 0 0 0 0
0 0 0 0 0 0
0 0 0 0 0 0
0 0 0 0 0 0
0 0 0 0 0 0
0 0 0 0 0 0
0 0 0 0 0 0
0 0 0 0 0 0
0 0 0 0 0 0
0 0 0 0 0 0
0 0 0 0 0 0
0 0 0 0 0 0
0 0 0 0 0 0
0 0 0 0 0 0
0 0 0 0 0 0
0 0 0 0 0 0
0 0 0 0 0 0
0 0 0 0 0 0
0 0 0 0 0 0
0 0 0 0 0 0
0 0 0 0 0 0
0 0 0 0 0 0
0 0 0 0 0 0
0 0 0 0 0 0
0 0 0 0 0 0
0 0 0 0 0 0
0 0 0 0 0 0
0 0 0 0 0 0
0 0 0 0 0 0
0 0 0 0 0 0
0 0 0 0 0 0
0 0 0 0 0 0
0 0 0 0 0 0
0 0 0 0 0 0
0 0 0 0 0 0
0 0 0 0 0 0
0 0 0 0 0 0
0 0 0 0 0 0
0 0 0 0 0 0
0 0 0 0 0 0
0 0 0 0 0 0
0 0 0 0 0 0
0 0 0 0 0 0
0 0 0 0 0 0
0 0 0 0 0 0
0 0 0 0 0 0
0 0 0 0 0 0
0 0 0 0 0 0
0 0 0 0 0 0
0 0 0 0 0 0
0 0 0 0 0 0
0 0 0 0 0 0
0 0 0 0 0 0
0 0 0 0 0 0
0 0 0 0 0 0
0 0 0 0 0 0
0 0 0 0 0 0
0 0 0 0 0 0
0 0 0 0 0 0
0 0 0 0 0 0
0 0 0 0 0 0
0 0 0 0 0 0
0 0 0 0 0 0
0 0 0 0 0 0
0 0 0 0 0 0
0 0 0 0 0 0
0 0 0 0 0 0
0 0 0 0 0 0
0 0 0 0 0 0
0 0 0 0 0 0
0 0 0 0 0 0
0 0 0 0 0 0
0 0 0 0 0 0
0 0 0 0 0 0
0 0 0 0 0 0
0 0 0 0 0 0
0 0 0 0 0 0
0 0 0 0 0 0
0 0 0 0 0 0
0 0 0 0 0 0
0 0 0 0 0 0
0 0 0 0 0 0
0 0 0 0 0 0
0 0 0 0 0 0
0 0 0 0 0 0
0 0 0 0 0 0
0 0 0 0 0 0
0 0 0 0 0 0
0 0 0 0 0 0
0 0 0 0 0 0
0 0 0 0 0 0
0 0 0 0 0 0
0 0 0 0 0 0
0 0 0 0 0 0
0 0 0 0 0 0
0 0 0 0 0 0
0 0 0 0 0 0
0 0 0 0 0 0
0 0 0 0 0 0
0 0 0 0 0 0
0 0 0 0 0 0
0 0 0 0 0 0
0 0 0 0 0 0
0 0 0 0 0 0
0 0 0 0 0 0
0 0 0 0 0 0
0 0 0 0 0 0
0 0 0 0 0 0
0 0 0 0 0 0
0 0 0 0 0 0
0 0 0 0 0 0
0 0 0 0 0 0
0 0 0 0 0 0
0 0 0 0 0 0
0 0 0 0 0 0
0 0 0 0 0 0
0 0 0 0 0 0
0 0 0 0 0 0
0 0 0 0 0 0
0 0 0 0 0 0
0 0 0 0 0 0
0 0 0 0 0 0
0 0 0 0 0 0
0 0 0 0 0 0
0 0 0 0 0 0
0 0 0 0 0 0
0 0 0 0 0 0
0 0 0 0 0 0
0 0 0 0 0 0
0 0 0 0 0 0
0 0 0 0 0 0
0 0 0 0 0 0
0 0 0 0 0 0
0 0 0 0 0 0
0 0 0 0 0 0
0 0 0 0 0 0
0 0 0 0 0 0
0 0 0 0 0 0
0 0 0 0 0 0
0 0 0 0 0 0
0 0 0 0 0 0
0 0 0 0 0 0
0 0 0 0 0 0
0 0 0 0 0 0
0 0 0 0 0 0
0 0 0 0 0 0
0 0 0 0 0 0
0 0 0 0 0 0
0 0 0 0 0 0
0 0 0 0 0 0
</DataArray>
<DataArray type="Float32" Name="Velocity (m/s)" NumberOfComponents="3" format= "ascii" RangeMin="0" RangeMax="0">
0 0 0 0 0 0 
0 0 0 0 0 0 
0 0 0 0 0 0 
0 0 0 0 0 0 
0 0 0 0 0 0 
0 0 0 0 0 0 
0 0 0 0 0 0 
0 0 0 0 0 0 
0 0 0 0 0 0 
0 0 0 0 0 0 
0 0 0 0 0 0 
0 0 0 0 0 0 
0 0 0 0 0 0 
0 0 0 0 0 0 