<VTKFile type="UnstructuredGrid" version="1.0" byte_order="LittleEndian" header_type="UInt64">
<UnstructuredGrid>
<Piece NumberOfPoints="10440" NumberOfCells="6670">
<PointData>
</PointData>
<CellData Scalars="Temperature (C)">
<DataArray type="Float32" Name="Temperature (C)" format="ascii" RangeMin="23.8595" RangeMax="27.0139">
25.1121 25.1285 24.9415 24.8709 24.9515 24.8775
25.115 25.1299 24.9603 24.8725 24.9714 24.88
24.8205 24.8273 24.7967 24.8059 24.8093 24.8158
24.7828 24.7914 24.794 24.8053 24.7962 24.8089
24.783 24.7936 24.7888 24.801 24.7999 24.8138
24.8042 24.8191 24.7968 24.8104 24.8058 24.8206
24.809 24.8249 24.815 24.8317 24.8156 24.8314
24.8265 24.8433 24.822 24.8394 24.8318 24.8499
24.8381 24.8559 24.8527 24.8714 24.8464 24.8652
24.8656 24.8851 24.8718 24.8915 24.895 24.9155
24.891 24.9111 24.9239 24.9445 24.9239 24.9451
24.96 24.982 24.9665 24.9876 25.0217 25.0434
25.0058 25.0286 25.0645 25.0879 25.0937 25.1159
25.1873 25.2102 25.14 25.1642 25.2373 25.2622
25.3085 25.332 25.4625 25.4868 25.3619 25.3876
25.5187 25.5454 25.6532 25.6784 25.8798 25.9063
25.7115 25.7392 25.94 25.969 26.1366 26.1646
26.411 26.4413 26.1995 26.2302 26.4776 26.5107
26.677 26.7109 26.8326 26.87 26.7501 26.7866
26.9177 26.9571 25.1212 25.1359 24.9739 24.8889
24.985 24.8973 25.1268 25.1403 24.9866 24.9089
24.9968 24.9176 24.8271 24.8351 24.7988 24.8085
24.8523 24.8611 24.8231 24.8337 25.1413 25.1536
25.0124 24.9461 25.0216 24.9552 25.1931 25.2078
25.0612 24.9955 25.0716 25.0055 24.897 24.9067
24.8666 24.878 24.946 24.9565 24.911 24.9231
24.7971 24.8086 24.802 24.8149 24.8185 24.8305
24.8212 24.8345 24.8099 24.8241 24.8191 24.8343
24.8274 24.8419 24.8353 24.8508 24.8568 24.8696
24.855 24.8689 24.8954 24.9087 24.8885 24.9028
24.8569 24.8719 24.8613 24.8772 24.8856 24.901
24.8855 24.9017 25.2433 25.2597 25.1078 25.0397
25.119 25.0502 25.2746 25.2906 25.1378 25.069
25.1489 25.0795 24.9878 24.9986 24.9482 24.9606
25.0161 25.0269 24.9738 24.9863 25.2774 25.2914
25.1447 25.0773 25.1552 25.0875 25.2763 25.2897
25.1463 25.0793 25.1563 25.0891 25.0247 25.0352
24.9813 24.9937 25.0264 25.0366 24.9817 24.9941
24.9273 24.9408 24.9157 24.9303 24.9486 24.9623
24.9328 24.9475 24.9081 24.9237 24.9035 24.9199
24.9205 24.9361 24.9108 24.9272 24.9532 24.9669
24.9344 24.9491 24.9516 24.9652 24.9305 24.9451
24.9185 24.9342 24.905 24.9214 24.9122 24.9277
24.8959 24.9122 25.2779 25.2909 25.1469 25.0786
25.1564 25.0879 25.2863 25.2984 25.1496 25.0754
25.1584 25.0843 25.0237 25.0336 24.9759 24.9879
25.0142 25.0237 24.9588 24.9705 25.2967 25.3083
25.155 25.0739 25.1633 25.0823 25.3172 25.3284
25.1693 25.0771 25.1772 25.0852 25.0052 25.0143
24.9412 24.9524 24.9965 25.0051 24.9184 24.9291
24.9419 24.9552 24.9171 24.9314 24.9189 24.9319
24.8893 24.9033 24.8946 24.9099 24.874 24.8899
24.862 24.8769 24.8367 24.8522 24.895 24.9076
24.8606 24.8741 24.8628 24.8747 24.8216 24.8344
24.8288 24.8432 24.7996 24.8144 24.784 24.7975
24.75 24.7638 25.3432 25.3707 25.3546 25.3825
25.1904 25.0872 25.2151 25.1024 25.1983 25.095
25.2232 25.1098 25.405 25.4407 25.4176 25.4545
25.25 25.1294 25.2918 25.1709 25.2589 25.1368
25.3026 25.1796 24.9942 24.9987 25.0024 25.0062
24.9016 24.8923 24.9116 24.9014 25.0158 25.0534
25.0226 25.0605 24.8945 24.9196 24.9023 24.9264
25.4761 25.4906 25.3391 25.2279 25.352 25.2396
25.4891 25.5037 25.3657 25.2654 25.3796 25.2788
25.1173 25.1279 24.9816 24.9907 25.1652 25.1783
25.0405 25.053 24.8362 24.8179 24.8475 24.8282
24.7882 24.7636 24.8002 24.7745 24.8099 24.8253
24.8188 24.8326 24.7484 24.757 24.7579 24.7646
24.7449 24.7151 24.7575 24.7265 24.7066 24.6729
24.7194 24.6845 24.6941 24.6972 24.7039 24.705
24.6476 24.6471 24.6575 24.6547 24.8804 24.8886
24.8067 24.8145 24.9454 24.9575 24.875 24.8866
24.7435 24.7512 24.6932 24.7008 24.8141 24.8254
24.7661 24.7771 25.4935 25.508 25.3786 25.2845
25.3926 25.2982 25.4989 25.5132 25.3938 25.3073
25.4077 25.321 25.1904 25.2039 25.0729 25.0861
25.2208 25.2343 25.113 25.1263 25.5081 25.5224
25.4091 25.328 25.423 25.3416 25.5168 25.5311
25.4209 25.3429 25.4347 25.3564 25.247 25.2605
25.1472 25.1605 25.2652 25.2787 25.1702 25.1836
24.9829 24.9958 24.9161 24.9286 25.0308 25.0438
24.9698 24.9826 24.8581 24.8703 24.8127 24.8246
24.9174 24.93 24.877 24.8895 25.0718 25.0851
25.0166 25.0298 25.0992 25.1127 25.0477 25.061
24.9698 24.9829 24.9347 24.9478 25.0045 25.0179
24.9729 24.9863 25.5282 25.5425 25.4344 25.3587
25.4482 25.3723 25.5462 25.5605 25.4542 25.3809
25.468 25.3946 25.2837 25.2973 25.193 25.2066
25.3088 25.3225 25.2228 25.2365 25.5751 25.5895
25.4841 25.4125 25.4981 25.4265 25.6103 25.6248
25.5191 25.4486 25.5334 25.463 25.343 25.357
25.2617 25.2757 25.3807 25.3952 25.3026 25.3172
25.126 25.1396 25.0777 25.0913 25.1602 25.174
25.1156 25.1294 25.0378 25.0515 25.0093 25.023
25.0795 25.0934 25.0544 25.0685 25.2034 25.2176
25.1625 25.1768 25.2475 25.2623 25.2096 25.2245
25.1301 25.1445 25.1085 25.1231 25.1802 25.1952
25.1613 25.1766 25.6508 25.6654 25.5582 25.4879
25.5729 25.5027 25.6864 25.7015 25.5916 25.5202
25.6068 25.5355 25.4206 25.4356 25.3443 25.3595
25.4524 25.4678 25.3767 25.3923 25.7121 25.7275
25.6149 25.5423 25.6304 25.5579 25.7542 25.7702
25.6512 25.5762 25.6671 25.5921 25.4737 25.4894
25.398 25.4139 25.506 25.522 25.4298 25.446
25.2918 25.3071 25.2563 25.2718 25.3254 25.3412
25.2912 25.3072 25.2292 25.2449 25.2123 25.2282
25.2652 25.2815 25.2493 25.2658 25.3473 25.3634
25.3136 25.3299 25.3794 25.3958 25.3463 25.3629
25.2882 25.3048 25.2728 25.2896 25.3214 25.3383
25.3064 25.3236 25.8014 25.818 25.6911 25.613
25.7076 25.6294 25.8493 25.8664 25.7318 25.6504
25.7488 25.6673 25.5407 25.5572 25.4633 25.48
25.5758 25.5927 25.497 25.514 25.9117 25.9295
25.786 25.7007 25.8037 25.7183 25.9717 25.9902
25.8393 25.7507 25.8577 25.7691 25.6232 25.6409
25.5424 25.5602 25.6708 25.6891 25.5881 25.6066
25.4126 25.4295 25.3795 25.3966 25.4458 25.4631
25.4125 25.43 25.3548 25.3722 25.3398 25.3575
25.3877 25.4055 25.3727 25.3908 25.4904 25.5083
25.4566 25.4747 25.5351 25.5537 25.5008 25.5196
25.4314 25.4498 25.4159 25.4347 25.4751 25.4942
25.4591 25.4785 24.8295 24.8455 24.8418 24.8589
24.8451 24.8614 24.8577 24.875 24.8551 24.8731
24.8714 24.8903 24.8715 24.8898 24.8884 24.9076
24.8678 24.8844 24.8777 24.8952 24.8881 24.9049
24.8946 24.9122 24.8897 24.908 24.9051 24.9242
24.9036 24.922 24.916 24.9351 24.8924 24.9122
24.9173 24.9379 24.9101 24.9301 24.9357 24.9565
24.9477 24.9691 24.9854 25.0074 24.9667 24.9882
25.005 25.0271 24.9255 24.9453 24.9498 24.9704
24.9333 24.9531 24.9547 24.9752 24.9796 25.0008
25.0165 25.0383 24.9814 25.0024 25.0151 25.0367
24.9014 24.9184 24.9034 24.9209 24.9037 24.9205
24.9007 24.9181 24.9083 24.9265 24.9165 24.9354
24.901 24.9189 24.9041 24.9226 24.8938 24.9107
24.8867 24.9041 24.8819 24.8986 24.872 24.8891
24.8831 24.9009 24.8818 24.9001 24.8656 24.8831
24.8613 24.8792 24.9295 24.949 24.9467 24.9667
24.9116 24.9306 24.9234 24.9429 24.969 24.9895
24.9983 25.0193 24.9404 24.9603 24.9645 24.9847
24.8845 24.9032 24.8917 24.9108 24.8607 24.879
24.8648 24.8833 24.9042 24.9236 24.9241 24.9437
24.8742 24.893 24.8913 24.9102 25.0327 25.0555
25.093 25.1164 25.0529 25.0757 25.1139 25.1373
25.1703 25.1944 25.2693 25.2941 25.1918 25.2158
25.2916 25.3162 25.063 25.0854 25.1225 25.1454
25.0583 25.0803 25.1145 25.137 25.1989 25.2223
25.297 25.321 25.1876 25.2105 25.2825 25.3058
25.3954 25.4209 25.5533 25.5797 25.4181 25.4434
25.5762 25.6023 25.7464 25.7738 25.9749 26.0034
25.769 25.7958 25.9967 26.0245 25.4218 25.4462
25.5778 25.6029 25.404 25.4277 25.5568 25.581
25.768 25.7937 25.9927 26.0191 25.7437 25.7683
25.9651 25.9904 25.0371 25.0584 25.0888 25.1105
24.9982 25.0187 25.0452 25.0659 25.1576 25.1795
25.2484 25.2706 25.1095 25.1303 25.196 25.2169
24.9538 24.9735 24.9973 25.0171 24.9184 24.9374
24.9597 24.9786 25.0583 25.0781 25.142 25.1618
25.0188 25.0377 25.1013 25.1199 25.3658 25.3882
25.5146 25.5373 25.3092 25.3302 25.4542 25.4752
25.6978 25.7207 25.9164 25.9397 25.6347 25.6558
25.8531 25.8742 25.2531 25.2727 25.397 25.4162
25.212 25.2302 25.3573 25.3749 25.5786 25.5974
25.8007 25.8193 25.5425 25.5595 25.7696 25.7867
24.8555 24.8717 24.8414 24.8579 24.8141 24.8298
24.7963 24.8121 24.8309 24.8477 24.8221 24.8391
24.7822 24.7982 24.7693 24.7855 24.7738 24.7887
24.7531 24.7682 24.7208 24.7347 24.6973 24.7113
24.7362 24.7514 24.7202 24.7354 24.6779 24.6919
24.659 24.6729 24.8166 24.8338 24.8159 24.8333
24.7591 24.7755 24.7541 24.7706 24.8208 24.8383
24.8337 24.8512 24.755 24.7714 24.765 24.7812
24.7066 24.7218 24.6983 24.7134 24.6424 24.6561
24.6318 24.6451 24.6964 24.7112 24.7049 24.7192
24.629 24.6415 24.6394 24.6508 24.6746 24.6384
24.6876 24.65 24.6491 24.6114 24.6621 24.6229
24.6105 24.6086 24.6203 24.6157 24.5826 24.582
24.5919 24.5883 24.6283 24.59 24.6411 24.6013
24.6082 24.5704 24.6207 24.5811 24.5622 24.5658
24.5709 24.5711 24.5462 24.5594 24.5538 24.5638
24.6581 24.6658 24.6387 24.6467 24.7334 24.7443
24.7166 24.7274 24.6312 24.6397 24.6344 24.6434
24.7116 24.7226 24.7176 24.7288 24.5911 24.5554
24.6031 24.5651 24.5817 24.5509 24.5929 24.559
24.5388 24.5697 24.5448 24.5752 24.5466 24.5973
24.55 24.6043 24.5829 24.5619 24.5926 24.5675
24.6017 24.5949 24.609 24.5969 24.58 24.6433
24.5843 24.6518 24.6364 24.7074 24.6429 24.7173
24.654 24.6636 24.6891 24.6994 24.7397 24.7513
24.776 24.7882 24.7394 24.7505 24.8042 24.8162
24.8257 24.8385 24.8877 24.9012 24.8574 24.8747
24.8959 24.913 24.787 24.8027 24.8257 24.841
24.9532 24.9699 25.0354 25.0514 24.8863 24.9005
24.9759 24.9888 24.7272 24.7407 24.7693 24.7816
24.6684 24.6781 24.7241 24.7318 24.8374 24.848
24.9398 24.9493 24.8134 24.8203 24.9395 24.9482
25.1489 25.1641 25.3009 25.3156 25.1024 25.1144
25.2705 25.2828 25.4966 25.5116 25.7341 25.7504
25.4803 25.4945 25.7247 25.741 25.0832 25.0935
25.2651 25.2774 25.0998 25.1113 25.2881 25.3018
25.4825 25.4975 25.7275 25.7445 25.5042 25.5203
25.7422 25.7599 24.647 24.664 24.6517 24.6691
24.7267 24.7598 24.732 24.7676 24.7169 24.7896
24.7256 24.8009 24.8174 24.8879 24.828 24.9005
24.8373 24.8783 24.8455 24.8887 24.9743 25.0171
24.9851 25.0295 24.9361 25.0017 24.9485 25.0156
25.0711 25.1294 25.085 25.1446 24.8832 24.8963
24.9752 24.9893 24.9618 24.9763 25.0468 25.0622
25.0804 25.0956 25.1975 25.2137 25.1434 25.1598
25.2507 25.2678 25.1373 25.177 25.1506 25.1914
25.3222 25.3554 25.3372 25.3713 25.224 25.2729
25.2395 25.2894 25.3931 25.4311 25.4099 25.4486
25.5307 25.555 25.5477 25.5726 25.7586 25.7727
25.7768 25.7913 25.5817 25.6075 25.5999 25.6263
25.7877 25.801 25.8066 25.8204 25.3285 25.3459
25.473 25.4912 25.3706 25.3887 25.5031 25.5219
25.6345 25.6538 25.813 25.8327 25.6519 25.6715
25.8174 25.8375 26.2339 26.2639 26.5116 26.5436
26.2544 26.2835 26.5308 26.5616 26.7853 26.82
26.9584 26.9952 26.8038 26.8372 26.9784 27.0139
26.2472 26.2744 26.5203 26.549 26.2171 26.243
26.4889 26.5159 26.7912 26.8221 26.9668 26.9996
26.7604 26.7896 26.9383 26.9694 26.1677 26.1915
26.4413 26.4661 26.1077 26.1292 26.3872 26.4101
26.7166 26.7436 26.8986 26.9274 26.6701 26.6955
26.8581 26.8857 26.0615 26.0809 26.3476 26.3688
26.0357 26.0541 26.3256 26.3463 26.6362 26.6604
26.8296 26.8559 26.6167 26.6405 26.8124 26.8382
26.0075 26.0259 26.3005 26.3212 25.9984 26.0171
26.2874 26.3083 26.5927 26.6164 26.7901 26.8156
26.5757 26.5992 26.7733 26.7984 25.9974 26.0165
26.2804 26.3013 26.0023 26.0218 26.2752 26.2962
26.5638 26.5871 26.7606 26.7854 26.5513 26.5745
26.7464 26.7709 26.0076 26.0114 26.0274 26.0313
26.2705 26.2652 26.2915 26.2861 26.0146 26.0157
26.0347 26.0361 26.2583 26.2488 26.2793 26.2699
26.5394 26.528 26.5624 26.5508 26.7324 26.7187
26.7566 26.7427 26.5145 26.4975 26.5371 26.5202
26.7031 26.685 26.727 26.7088 26.0129 26.0336
26.233 26.2543 26.0046 26.0254 26.2135 26.2348
26.4728 26.4955 26.6589 26.6825 26.4455 26.4681
26.6302 26.6535 24.7824 24.7942 24.7675 24.7793
24.8511 24.8636 24.8396 24.8522 24.7642 24.7761
24.7717 24.7837 24.8389 24.8516 24.8484 24.8613
24.9134 24.9266 24.9054 24.9188 24.9545 24.9681
24.9487 24.9625 24.9071 24.9207 24.9184 24.9322
24.952 24.966 24.9644 24.9787 24.7948 24.8072
24.8313 24.8443 24.8727 24.886 24.9089 24.9227
24.88 24.8936 24.9398 24.9541 24.9559 24.9702
25.0122 25.0272 24.9434 24.9576 24.979 24.9937
24.9897 25.0044 25.0247 25.0399 25.0239 25.0391
25.0767 25.0926 25.0681 25.0839 25.1186 25.135
24.9936 25.0075 24.9897 25.0039 25.0416 25.056
25.0399 25.0545 24.9943 25.0087 25.0076 25.0224
25.0459 25.0608 25.0601 25.0753 25.0986 25.1135
25.0989 25.1142 25.1534 25.1691 25.155 25.171
25.1061 25.1217 25.1209 25.1369 25.1629 25.1792
25.1779 25.1945 25.0332 25.0483 25.0675 25.0831
25.0856 25.1013 25.1189 25.1351 25.1093 25.1256
25.1575 25.1743 25.1588 25.1755 25.2039 25.2212
25.146 25.1624 25.1779 25.1948 25.2022 25.2193
25.2323 25.2499 25.2151 25.2326 25.2565 25.2745
25.2669 25.285 25.3045 25.3232 25.0105 25.0256
25.091 25.1069 25.0778 25.0936 25.1517 25.1682
25.182 25.1988 25.2829 25.3004 25.2346 25.252
25.3262 25.3443 25.1374 25.154 25.205 25.2223
25.176 25.193 25.2394 25.2571 25.2804 25.2984
25.3632 25.3819 25.3095 25.328 25.3864 25.4055
25.3956 25.4141 25.5204 25.5395 25.4286 25.4475
25.5423 25.5617 25.6609 25.6808 25.8182 25.8385
25.671 25.6911 25.8163 25.8368 25.4557 25.4752
25.5587 25.5787 25.4721 25.4919 25.5678 25.588
25.676 25.6966 25.8097 25.8305 25.6773 25.6981
25.803 25.824 25.2115 25.2291 25.2708 25.289
25.2539 25.2718 25.308 25.3265 25.336 25.3548
25.407 25.4265 25.3668 25.386 25.4305 25.4503
25.3015 25.3201 25.3493 25.3685 25.3446 25.3639
25.3864 25.4062 25.4005 25.4203 25.4555 25.4757
25.4303 25.4507 25.4767 25.4975 25.4861 25.5062
25.5746 25.5951 25.5012 25.5216 25.5806 25.6013
25.6763 25.6973 25.7941 25.8152 25.6724 25.6936
25.78 25.8013 25.5161 25.5369 25.5842 25.6053
25.5275 25.5487 25.5847 25.6062 25.6639 25.6854
25.7588 25.7804 25.6524 25.6741 25.7347 25.7565
25.2059 25.2222 25.2084 25.225 25.2435 25.2605
25.2463 25.2636 25.2166 25.2335 25.2313 25.2487
25.2545 25.2721 25.269 25.287 25.2673 25.2845
25.2702 25.2878 25.3012 25.3187 25.3041 25.322
25.2783 25.2963 25.2925 25.3108 25.312 25.3302
25.3256 25.3443 25.2547 25.2725 25.283 25.3013
25.2914 25.3099 25.3183 25.3373 25.3149 25.3338
25.3489 25.3683 25.3482 25.3677 25.3796 25.3996
25.3143 25.3331 25.3403 25.3596 25.3464 25.3655
25.3709 25.3905 25.3688 25.3887 25.3986 25.4189
25.3975 25.4177 25.4248 25.4454 25.3346 25.3527
25.3373 25.3558 25.3673 25.3857 25.3696 25.3885
25.3448 25.3637 25.3578 25.3771 25.3766 25.3959
25.3889 25.4085 25.4101 25.4292 25.4119 25.4314
25.4526 25.4724 25.4537 25.4739 25.4182 25.4381
25.4294 25.4498 25.4592 25.4798 25.4693 25.4903
25.3775 25.3972 25.4005 25.4208 25.4075 25.4276
25.429 25.4496 25.4253 25.446 25.4501 25.4714
25.4518 25.4729 25.4743 25.4959 25.4465 25.4673
25.4661 25.4873 25.4848 25.5062 25.5026 25.5244
25.4865 25.5082 25.5061 25.5283 25.5208 25.5431
25.5377 25.5604 25.3843 25.4043 25.4204 25.4408
25.4117 25.4322 25.4436 25.4646 25.4573 25.4783
25.4955 25.5168 25.4756 25.497 25.5078 25.5296
25.4285 25.4493 25.4578 25.4791 25.4516 25.4727
25.4771 25.4986 25.4865 25.5082 25.515 25.537
25.5012 25.5231 25.5241 25.5464 25.5368 25.5585
25.5833 25.6052 25.5422 25.5643 25.5807 25.603
25.639 25.6611 25.7086 25.7306 25.6275 25.6498
25.6873 25.7095 25.5448 25.5671 25.5782 25.6006
25.5474 25.5699 25.5732 25.5958 25.6191 25.6415
25.6725 25.6947 25.6055 25.628 25.6493 25.6716
25.4739 25.4956 25.4958 25.5179 25.4952 25.5172
25.5135 25.5359 25.5154 25.5379 25.5331 25.5558
25.5288 25.5516 25.5413 25.5642 25.5234 25.546
25.5374 25.5604 25.5517 25.5749 25.5618 25.5853
25.5474 25.5707 25.5534 25.5769 25.5671 25.5908
25.5673 25.5912 25.55 25.5729 25.5683 25.5912
25.552 25.5751 25.5629 25.586 25.5919 25.6147
25.6261 25.6486 25.5779 25.6009 25.6025 25.625
25.5564 25.5799 25.5581 25.5815 25.5632 25.587
25.5564 25.5801 25.5621 25.5853 25.5741 25.5968
25.5501 25.5735 25.5503 25.5731 25.9972 26.0181
26.1989 26.2201 25.9834 26.0044 26.1746 26.196
26.4257 26.4483 26.6094 26.6325 26.394 26.4166
26.5759 26.5988 25.9652 25.9864 26.146 26.1674
25.9504 25.9717 26.1241 26.1455 26.3577 26.3801
26.538 26.5606 26.3304 26.3527 26.5092 26.5317
25.9336 25.955 26.1001 26.1215 25.9094 25.9309
26.0667 26.0881 26.3009 26.3231 26.4782 26.5004
26.2605 26.2825 26.4356 26.4576 25.8756 25.8972
26.0214 26.0429 25.8386 25.8604 25.9728 25.9943
26.2062 26.228 26.3786 26.4002 26.1484 26.17
26.3179 26.3393 25.7995 25.8213 25.9214 25.9429
25.7681 25.7901 25.8804 25.9019 26.0875 26.1089
26.2541 26.2751 26.0388 26.06 26.2027 26.2232
25.7465 25.7685 25.8524 25.8737 25.7133 25.7352
25.8095 25.8307 26.0056 26.0265 26.1675 26.1877
25.9548 25.9754 26.1134 26.1332 25.6796 25.7016
25.7656 25.7867 25.6456 25.6675 25.7213 25.7423
25.9024 25.9227 26.0574 26.0767 25.8493 25.8693
26.0005 26.0193 25.6035 25.6254 25.6655 25.6862
25.5664 25.5882 25.6149 25.6355 25.7815 25.8009
25.927 25.9451 25.7188 25.7378 25.8586 25.876
26.0293 26.0484 25.8913 25.8002 25.9105 25.8192
26.0868 26.1066 25.9446 25.8514 25.9646 25.8712
25.7182 25.7372 25.6339 25.653 25.7677 25.7875
25.6818 25.7017 26.1306 26.151 25.9862 25.8916
26.0068 25.912 26.1599 26.1808 26.014 25.9185
26.035 25.9394 25.8068 25.8272 25.7197 25.7402
25.833 25.8538 25.745 25.7659 25.5799 25.5993
25.545 25.5645 25.6268 25.6468 25.5911 25.6113
25.5187 25.5385 25.5021 25.5222 25.5641 25.5846
25.5468 25.5676 25.6638 25.6844 25.6273 25.6482
25.6883 25.7094 25.6513 25.6725 25.5996 25.6208
25.5817 25.6031 25.6231 25.6445 25.6046 25.6263
26.2045 26.2261 26.0558 25.959 26.0775 25.9805
26.2513 26.2737 26.0996 26.0018 26.1221 26.0239
25.8724 25.8938 25.7831 25.8044 25.9143 25.9364
25.8237 25.8458 26.298 26.3213 26.1437 26.0449
26.1669 26.0678 26.3574 26.3817 26.201 26.102
26.2252 26.1258 25.9568 25.9795 25.8651 25.8877
26.0138 26.0374 25.9213 25.9449 25.7252 25.7467
25.6872 25.7089 25.7646 25.7867 25.7255 25.7478
25.6581 25.6799 25.6386 25.6607 25.6952 25.7177
25.6747 25.6974 25.8047 25.8274 25.7645 25.7873
25.8597 25.8832 25.8181 25.8417 25.7331 25.756
25.7113 25.7345 25.7851 25.8088 25.7618 25.7857
26.4122 26.4375 26.2553 26.1572 26.2805 26.1819
26.4615 26.4878 26.3057 26.2094 26.3319 26.2351
26.0698 26.0944 25.9776 26.002 26.1238 26.1493
26.0326 26.0579 26.5065 26.5337 26.3535 26.2599
26.3806 26.2865 26.5367 26.5646 26.3868 26.2959
26.4147 26.3233 26.1769 26.2033 26.0878 26.114
26.2153 26.2425 26.1285 26.1555 25.9152 25.9396
25.8726 25.897 25.97 25.9953 25.9268 25.9521
25.8383 25.8628 25.8134 25.8381 25.8914 25.9168
25.8652 25.8907 26.0258 26.0519 25.9824 26.0085
26.0675 26.0944 26.0245 26.0513 25.9464 25.9725
25.919 25.9453 25.9883 26.0152 25.9603 25.9873
26.5556 26.584 26.4079 26.3188 26.4362 26.3466
26.5828 26.6118 26.4375 26.3511 26.4665 26.3796
26.2399 26.2675 26.1547 26.1821 26.2747 26.3031
26.1923 26.2204 26.6071 26.6367 26.464 26.3803
26.4936 26.4095 26.6294 26.6595 26.4884 26.4074
26.5186 26.4372 26.3067 26.3357 26.2276 26.2563
26.3366 26.3662 26.2609 26.2903 26.0946 26.1219
26.0519 26.0791 26.1336 26.1615 26.0916 26.1195
26.0157 26.043 25.9874 26.0148 26.0557 26.0835
26.0271 26.0551 26.171 26.1996 26.1303 26.1588
26.2067 26.2359 26.1675 26.1966 26.0951 26.1237
26.0668 26.0954 26.1333 26.1624 26.1055 26.1346
26.6518 26.6823 26.5141 26.4367 26.5448 26.4672
26.6638 26.6944 26.5291 26.4547 26.5601 26.4856
26.3697 26.4001 26.2989 26.3291 26.3907 26.4216
26.3241 26.3549 26.6712 26.7018 26.5388 26.4667
26.5699 26.4979 26.6765 26.7071 26.5465 26.4767
26.5777 26.5081 26.405 26.4362 26.3416 26.3728
26.4174 26.4489 26.3573 26.3889 26.2485 26.2785
26.2119 26.2418 26.277 26.3076 26.2428 26.2734
26.1798 26.2097 26.1533 26.1833 26.2129 26.2434
26.188 26.2186 26.2971 26.3282 26.265 26.296
26.3157 26.3473 26.2858 26.3173 26.2368 26.2678
26.2134 26.2444 26.2596 26.2911 26.2379 26.2694
26.6803 26.7108 26.5532 26.486 26.5844 26.5176
26.6801 26.7102 26.5553 26.4903 26.5863 26.5217
26.4294 26.4612 26.3733 26.4053 26.4357 26.4675
26.383 26.4151 26.6794 26.7093 26.5561 26.4922
26.5869 26.5236 26.6779 26.7076 26.5563 26.4939
26.587 26.5252 26.4389 26.4707 26.3882 26.4204
26.4422 26.474 26.3942 26.4266 26.3352 26.3672
26.308 26.34 26.3479 26.3802 26.3231 26.3555
26.2843 26.3164 26.2648 26.2969 26.3018 26.3343
26.2845 26.317 26.3549 26.3874 26.3317 26.3643
26.3633 26.396 26.3421 26.375 26.3119 26.3446
26.296 26.3288 26.3244 26.3574 26.3105 26.3437
26.674 26.7034 26.5533 26.4917 26.5836 26.5227
26.6707 26.6998 26.5502 26.4889 26.5803 26.5197
26.4411 26.4727 26.3956 26.4279 26.4389 26.4702
26.3947 26.4268 26.6674 26.6963 26.5469 26.4858
26.5768 26.5163 26.6631 26.6919 26.5426 26.4814
26.5723 26.5118 26.436 26.4671 26.3928 26.4247
26.4317 26.4626 26.389 26.4207 26.3671 26.3998
26.3479 26.3809 26.3681 26.4008 26.3503 26.3834
26.3323 26.3656 26.3206 26.3541 26.3362 26.3696
26.326 26.3597 26.3677 26.4003 26.3512 26.3842
26.3654 26.3979 26.3503 26.3833 26.3385 26.3719
26.3296 26.3634 26.3391 26.3726 26.3319 26.3658
26.6579 26.6865 26.5373 26.4755 26.5667 26.5055
26.6532 26.6815 26.5327 26.47 26.5618 26.4996
26.425 26.4555 26.3812 26.4126 26.4182 26.4483
26.3721 26.403 26.6489 26.6771 26.529 26.4652
26.5578 26.4946 26.6463 26.6744 26.5267 26.4619
26.5555 26.4911 26.4119 26.4416 26.3627 26.393
26.4071 26.4366 26.3551 26.3851 26.3576 26.3897
26.3435 26.3763 26.3467 26.3782 26.3319 26.3642
26.3336 26.367 26.328 26.362 26.3221 26.3551
26.3171 26.3508 26.3343 26.3653 26.3176 26.3492
26.3239 26.3543 26.3048 26.3358 26.3064 26.3389
26.301 26.3343 26.2917 26.3234 26.285 26.3175
25.495 25.5155 25.4954 25.5163 25.5389 25.5601
25.5385 25.56 25.5002 25.5214 25.5093 25.5309
25.5425 25.5643 25.5506 25.5728 25.5731 25.5949
25.5721 25.5943 25.5956 25.6176 25.5941 25.6166
25.5755 25.598 25.583 25.6058 25.5971 25.6199
25.6041 25.6272 25.5234 25.5455 25.5395 25.562
25.5634 25.5861 25.578 25.6011 25.5557 25.5787
25.5703 25.5937 25.5923 25.6159 25.6048 25.6287
25.5949 25.6182 25.6084 25.6322 25.6154 25.639
25.6283 25.6524 25.6217 25.6458 25.6328 25.6573
25.6408 25.6653 25.6511 25.6759 25.6288 25.6512
25.6266 25.6495 25.6638 25.6869 25.6608 25.6842
25.629 25.6522 25.6352 25.6587 25.6624 25.6861
25.6678 25.6919 25.6994 25.7229 25.6955 25.7193
25.7483 25.7725 25.743 25.7675 25.6962 25.7204
25.7007 25.7252 25.7425 25.7673 25.7457 25.7708
25.6456 25.6696 25.6576 25.682 25.6772 25.7017
25.6882 25.7132 25.669 25.6938 25.6781 25.7033
25.6987 25.724 25.7067 25.7324 25.7091 25.7341
25.7192 25.7445 25.7527 25.7783 25.7614 25.7874
25.7286 25.7543 25.7356 25.7616 25.7696 25.7958
25.7753 25.8019 25.5816 25.6053 25.5882 25.6123
25.6135 25.6377 25.617 25.6416 25.5892 25.6135
25.5843 25.6087 25.6143 25.639 25.6046 25.6294
25.6398 25.6647 25.6414 25.6666 25.6572 25.6823
25.6576 25.683 25.6362 25.6615 25.6234 25.6487
25.6508 25.6763 25.6361 25.6617 25.5738 25.5981
25.5591 25.5832 25.5881 25.6128 25.5661 25.5905
25.5433 25.567 25.5322 25.5552 25.5411 25.5651
25.5191 25.5423 25.6029 25.6281 25.5758 25.6007
25.6131 25.6386 25.5828 25.608 25.5444 25.5688
25.5145 25.5381 25.5474 25.572 25.5124 25.5362
25.6828 25.7083 25.6816 25.7073 25.7101 25.7361
25.7074 25.7337 25.6727 25.6986 25.6554 25.6813
25.6968 25.7232 25.6772 25.7036 25.7379 25.7643
25.7339 25.7605 25.7763 25.8032 25.7709 25.798
25.7217 25.7484 25.7001 25.7268 25.757 25.7842
25.7333 25.7605 25.629 25.6547 25.5942 25.6196
25.6479 25.6741 25.6092 25.635 25.553 25.5779
25.5109 25.5348 25.5628 25.588 25.514 25.5383
25.668 25.6945 25.6257 25.6519 25.6983 25.7253
25.6522 25.6788 25.5746 25.6001 25.5196 25.5441
25.5958 25.6217 25.5339 25.5588 25.7984 25.8234
25.7917 25.817 25.8487 25.8745 25.8407 25.8667
25.7901 25.8156 25.792 25.8178 25.8379 25.8641
25.8386 25.8651 25.9013 25.9278 25.892 25.9188
25.9417 25.9689 25.9317 25.9591 25.8881 25.9151
25.8876 25.9148 25.9269 25.9546 25.9255 25.9534
25.7977 25.824 25.8052 25.8318 25.8431 25.8699
25.8494 25.8766 25.8122 25.8392 25.8169 25.8442
25.8554 25.883 25.8592 25.8871 25.8908 25.9184
25.8961 25.924 25.9279 25.9561 25.9324 25.9609
25.9012 25.9294 25.9043 25.9328 25.9368 25.9656
25.9393 25.9684 25.9684 25.9959 25.9577 25.9855
26.0075 26.0355 25.9961 26.0243 25.9525 25.9805
25.9505 25.9787 25.9901 26.0185 25.9872 26.0159
26.0469 26.0756 26.035 26.0639 26.0855 26.1148
26.0733 26.1027 26.0283 26.0574 26.0247 26.054
26.0661 26.0957 26.0619 26.0916 25.9522 25.9808
25.9562 25.985 25.988 26.017 25.9912 26.0204
25.9602 25.9893 25.9623 25.9917 25.9945 26.024
25.9961 26.0259 26.0247 26.0543 26.0271 26.0569
26.0611 26.0911 26.0627 26.0929 26.0297 26.0598
26.0308 26.0611 26.0646 26.0951 26.0651 26.0959
25.817 25.8445 25.8106 25.8384 25.8584 25.8866
25.8513 25.8796 25.7955 25.8234 25.7703 25.7981
25.8353 25.8637 25.809 25.8373 25.9029 25.9316
25.8952 25.9241 25.9375 25.9668 25.9295 25.959
25.8787 25.9077 25.8518 25.8808 25.9129 25.9424
25.8857 25.9152 25.7332 25.7609 25.6842 25.7114
25.7705 25.7986 25.7193 25.747 25.6237 25.6502
25.5562 25.5817 25.6557 25.6827 25.5838 25.6098
25.8123 25.8411 25.7597 25.788 25.8459 25.8752
25.7925 25.8214 25.6937 25.7213 25.6184 25.645
25.7254 25.7535 25.6481 25.6752 25.9603 25.9899
25.9521 25.982 25.9937 26.0237 25.9853 26.0155
25.9354 25.9653 25.9082 25.938 25.9685 25.9987
25.9412 25.9714 26.028 26.0586 26.0194 26.0502
26.062 26.0929 26.0532 26.0843 26.0025 26.0333
25.9753 26.0061 26.0362 26.0673 26.009 26.0401
25.8682 25.8978 25.8145 25.8437 25.9011 25.9311
25.847 25.8766 25.7467 25.7752 25.6683 25.6958
25.7785 25.8074 25.6988 25.7266 25.9352 25.9658
25.8811 25.9112 25.969 25.9999 25.9149 25.9454
25.8122 25.8416 25.7317 25.76 25.8457 25.8755
25.7645 25.7933 25.5354 25.5574 25.5706 25.5911
25.5097 25.5316 25.5313 25.5517 25.6623 25.6809
25.7959 25.8126 25.6103 25.6285 25.7374 25.7534
25.4957 25.518 25.507 25.5275 25.4876 25.51
25.4921 25.5126 25.5758 25.5939 25.6973 25.7128
25.5542 25.5721 25.6718 25.6869 25.4772 25.4997
25.4719 25.4924 25.4722 25.4949 25.4573 25.4779
25.524 25.5417 25.6356 25.6502 25.4994 25.517
25.6045 25.6188 25.4699 25.4928 25.4459 25.4666
25.4753 25.4985 25.4408 25.4617 25.4782 25.4957
25.5767 25.5905 25.4613 25.4788 25.5519 25.5652
25.4903 25.5141 25.4467 25.468 25.512 25.5361
25.4608 25.4824 25.4566 25.4743 25.539 25.552
25.4616 25.4795 25.5372 25.5499 25.5417 25.5664
25.4839 25.5062 25.5684 25.5936 25.5065 25.5292
25.4767 25.4951 25.5458 25.5585 25.4939 25.5127
25.5585 25.5713 25.587 25.6126 25.5226 25.5457
25.6152 25.6412 25.5478 25.5711 25.5068 25.5259
25.5686 25.5816 25.5278 25.5472 25.5859 25.5989
25.6465 25.6731 25.5767 25.6006 25.6782 25.705
25.6063 25.6306 25.5534 25.5734 25.6082 25.6217
25.5801 25.6005 25.6321 25.6457 26.134 26.164
26.1219 26.152 26.1698 26.2005 26.1582 26.189
26.1146 26.1449 26.1099 26.1404 26.1512 26.1821
26.1466 26.1776 26.1962 26.2273 26.1852 26.2165
26.2219 26.2535 26.2119 26.2436 26.1786 26.2099
26.1741 26.2056 26.2058 26.2376 26.2018 26.2337
26.1084 26.1391 26.1092 26.1401 26.1449 26.1761
26.1453 26.1768 26.1104 26.1415 26.1103 26.1416
26.146 26.1777 26.1455 26.1774 26.1724 26.2041
26.1727 26.2046 26.2003 26.2324 26.2005 26.2328
26.1732 26.2053 26.1723 26.2046 26.2009 26.2333
26.1998 26.2325 26.2506 26.2828 26.2419 26.2741
26.2722 26.3048 26.2649 26.2976 26.2367 26.269
26.2335 26.266 26.2609 26.2938 26.2588 26.2918
26.2849 26.3178 26.2786 26.3116 26.3013 26.3346
26.2965 26.3299 26.2754 26.3086 26.2741 26.3074
26.2946 26.3281 26.2946 26.3282 26.2326 26.2652
26.233 26.2658 26.2587 26.2919 26.2598 26.2931
26.2334 26.2664 26.2322 26.2653 26.2605 26.2939
26.2594 26.293 26.2748 26.3082 26.2763 26.3099
26.2964 26.3302 26.2989 26.3328 26.2773 26.311
26.2764 26.3102 26.3005 26.3345 26.2999 26.3341
26.1066 26.1382 26.0975 26.1292 26.1414 26.1735
26.132 26.1642 26.0804 26.1121 26.0533 26.085
26.1148 26.1471 26.0877 26.1199 26.168 26.2005
26.1585 26.191 26.1953 26.2281 26.1855 26.2184
26.1412 26.1738 26.114 26.1466 26.1681 26.2011
26.1409 26.1739 26.0134 26.0449 25.9595 25.9906
26.048 26.0799 25.9941 26.0257 25.8903 25.9207
25.8087 25.838 25.925 25.9559 25.8433 25.8731
26.0744 26.1067 26.0207 26.0526 26.1014 26.1341
26.0479 26.0802 25.9517 25.9829 25.87 25.9002
25.979 26.0106 25.8974 25.9279 26.2275 26.2608
26.2176 26.2509 26.2547 26.2884 26.2446 26.2784
26.2 26.2334 26.1728 26.2061 26.227 26.2607
26.1997 26.2334 26.2717 26.3056 26.2616 26.2957
26.2954 26.3297 26.2853 26.3197 26.2439 26.278
26.2166 26.2506 26.2676 26.302 26.2403 26.2746
26.1334 26.1664 26.08 26.1127 26.1603 26.1937
26.1069 26.1401 26.0114 26.0434 25.9299 25.9609
26.0385 26.0708 25.9571 25.9884 26.1772 26.2109
26.124 26.1573 26.2009 26.2349 26.1477 26.1813
26.0556 26.0882 25.9743 26.0059 26.0795 26.1123
25.9984 26.0302 26.3133 26.347 26.3102 26.344
26.32 26.3539 26.3181 26.3521 26.3098 26.3438
26.3113 26.3454 26.3187 26.3529 26.3214 26.3557
26.3249 26.3589 26.3241 26.3583 26.3287 26.3629
26.3292 26.3637 26.3258 26.3602 26.3295 26.3641
26.3322 26.3668 26.3373 26.3722 26.3147 26.349
26.3183 26.3527 26.3258 26.3603 26.3303 26.365
26.3209 26.3554 26.3209 26.3555 26.3336 26.3683
26.3341 26.369 26.3351 26.3698 26.3405 26.3754
26.3444 26.3794 26.351 26.3861 26.3445 26.3795
26.3456 26.3807 26.356 26.3912 26.358 26.3933
26.3264 26.3608 26.3285 26.3632 26.3166 26.3509
26.3199 26.3546 26.333 26.3679 26.3403 26.3754
26.3257 26.3607 26.3345 26.3698 26.3007 26.3347
26.3046 26.3392 26.2841 26.3175 26.2881 26.3222
26.3113 26.3463 26.3214 26.3568 26.2952 26.3298
26.306 26.3412 26.3491 26.3844 26.3569 26.3924
26.3451 26.3807 26.3544 26.3902 26.3633 26.3989
26.3665 26.4023 26.3625 26.3984 26.3673 26.4034
26.3336 26.3694 26.3447 26.3807 26.3193 26.355
26.3316 26.3677 26.3546 26.3908 26.3612 26.3976
26.3428 26.3792 26.3509 26.3874 26.3168 26.3515
26.307 26.3417 26.3304 26.3653 26.3208 26.3558
26.2894 26.3241 26.2621 26.2968 26.3033 26.3383
26.2761 26.311 26.3423 26.3775 26.333 26.3683
26.3553 26.3907 26.3465 26.382 26.3158 26.3509
26.2887 26.3237 26.3296 26.365 26.3027 26.3379
26.2227 26.2571 26.1696 26.2036 26.2368 26.2714
26.1838 26.218 26.1015 26.1348 26.0206 26.0529
26.1158 26.1492 26.0351 26.0675 26.2494 26.2842
26.1965 26.2309 26.2636 26.2986 26.2108 26.2454
26.1287 26.1623 26.0482 26.0808 26.1432 26.177
26.063 26.0958 26.365 26.4008 26.3571 26.3929