<VTKFile type="UnstructuredGrid" version="1.0" byte_order="LittleEndian" header_type="UInt64">
<UnstructuredGrid>
<Piece NumberOfPoints="19836" NumberOfCells="12880">
<PointData>
</PointData>
<CellData Scalars="Temperature (C)">
<DataArray type="Float32" Name="Temperature (C)" format="ascii" RangeMin="23.7284" RangeMax="30.5456">
23.9598 23.9725 23.9972 24.0891 23.9753 23.9836
23.9993 24.0869 24.2041 24.2722 24.2027 24.2702
23.9548 23.9639 23.987 24.0713 23.9671 23.9738
23.9918 24.0714 24.1822 24.2499 24.182 24.2488
24.3079 24.3462 24.3068 24.3497 24.4389 24.6293
24.4515 24.6522 24.2872 24.3284 24.2867 24.3318
24.4241 24.6147 24.4355 24.6355 24.917 25.2726
24.9453 25.3032 25.6136 25.9125 25.6455 25.9455
24.8999 25.252 24.9262 25.2809 25.5899 25.8864
25.6205 25.9184 26.2365 26.5806 26.2708 26.6164
26.9186 27.2356 26.9561 27.2749 26.208 26.5497
26.2414 26.5849 26.8855 27.2005 26.9225 27.2393
27.5294 27.8074 27.5704 27.8498 28.0817 28.3449
28.1251 28.389 27.4925 27.7688 27.5329 27.8106
28.0415 28.3033 28.0844 28.347 28.5786 28.7761
28.6229 28.8201 28.9433 29.0883 29.2112 28.9865
29.1303 29.2519 28.536 28.7327 28.5798 28.7763
28.8993 29.0439 29.1665 28.9421 29.0855 29.2069
29.3292 29.4415 29.5121 29.369 29.4776 29.5446
29.5754 29.6419 29.6044 29.6666 29.2843 29.3966
29.4673 29.3238 29.4324 29.4995 29.5308 29.5977
29.5594 29.622 29.6866 29.7161 29.7072 29.733
29.7375 29.7469 29.7504 29.757 29.6427 29.6725
29.6628 29.6889 29.6941 29.7037 29.7065 29.7131
29.7442 29.7337 29.7529 29.7419 29.7192 29.6998
29.7276 29.709 29.7011 29.6904 29.7088 29.6974
29.6755 29.6557 29.6827 29.6638 29.6758 29.6532
29.6878 29.6691 29.6369 29.6279 29.6559 29.6487
29.6315 29.6091 29.6424 29.6237 29.5931 29.5846
29.6109 29.6044 29.624 29.6168 29.6435 29.6302
29.6095 29.6062 29.6207 29.6222 29.5815 29.5741
29.6002 29.5853 29.5651 29.5609 29.5745 29.5751
29.6212 29.6646 29.6431 29.6913 29.7442 29.8642
29.774 29.895 29.5754 29.6186 29.5955 29.6434
29.6982 29.8184 29.7261 29.8473 30.0223 30.2105
30.0514 30.2358 30.4033 30.5243 30.4243 30.5442
29.9774 30.166 30.0046 30.1894 30.3591 30.4811
30.3777 30.4959 24.0619 24.0693 24.0836 24.1556
24.1905 24.1975 24.2125 24.2725 24.2544 24.31
24.3517 24.3954 24.4159 24.4229 24.4402 24.4966
24.637 24.644 24.6615 24.7155 24.5713 24.6244
24.7918 24.8577 24.0522 24.0581 24.0738 24.1408
24.1781 24.1837 24.1986 24.2548 24.2356 24.2914
24.3321 24.3774 24.3996 24.4054 24.4212 24.4741
24.6173 24.623 24.6388 24.6898 24.5471 24.6008
24.7646 24.8305 24.341 24.3851 24.4218 24.4643
24.4963 24.7107 24.5797 24.8026 24.6732 24.7463
24.9266 25.0215 24.8822 25.0936 25.1677 25.3718
24.3245 24.3709 24.407 24.4537 24.4833 24.6954
24.5714 24.791 24.651 24.7253 24.8998 24.995
24.8611 25.0715 25.1409 25.3442 24.8197 24.8261
24.8425 24.8931 24.9549 24.9605 24.9751 25.0208
24.9703 25.044 25.0944 25.1679 25.0164 25.0216
25.0347 25.076 25.0449 25.0496 25.0616 25.0996
25.1439 25.2115 25.1627 25.225 24.7974 24.8027
24.8175 24.8656 24.9308 24.9356 24.9487 24.9924
24.9413 25.0147 25.0648 25.1378 24.9915 24.9958
25.0077 25.0472 25.0195 25.0234 25.0342 25.0707
25.1139 25.1812 25.1326 25.1946 25.1238 25.2287
25.2478 25.3507 25.3761 25.5723 25.4901 25.6754
25.2843 25.3776 25.2909 25.3755 25.5042 25.6781
25.4916 25.6569 25.0946 25.1994 25.2179 25.3207
25.3465 25.542 25.4603 25.6449 25.2542 25.3476
25.261 25.3459 25.4748 25.6482 25.4628 25.6278
25.0112 25.3697 25.1074 25.4633 25.7098 26.0071
25.7985 26.091 25.3725 25.7 25.6307 25.9326
26.0119 26.2864 26.2221 26.4786 24.9929 25.3482
25.0915 25.4438 25.6856 25.9809 25.7761 26.0663
25.3487 25.6742 25.6018 25.9025 25.9844 26.2575
26.1908 26.4463 26.3294 26.6721 26.4078 26.745
27.0093 27.3262 27.0772 27.3899 26.5862 26.907
26.7603 27.0636 27.224 27.5225 27.3645 27.6483
26.301 26.6416 26.381 26.716 26.9766 27.2915
27.0461 27.3566 26.5558 26.8752 26.727 27.0292
27.1907 27.4876 27.329 27.6119 25.8157 26.0987
25.9056 26.1757 26.3715 26.6145 26.4384 26.6737
25.899 26.1632 25.8717 26.1332 26.4234 26.6577
26.3933 26.6286 25.7845 26.0666 25.8745 26.1438
26.3384 26.5806 26.4056 26.6401 25.8686 26.1321
25.8423 26.103 26.3914 26.625 26.3623 26.5967
26.8827 27.1725 26.9344 27.2169 27.4608 27.7332
27.4983 27.7642 26.9181 27.2003 26.8904 27.1742
27.4813 27.7465 27.4564 27.7224 26.8479 27.1369
26.9 27.1816 27.4243 27.6959 27.4621 27.7272
26.8844 27.1657 26.8575 27.1403 27.4457 27.7101
27.4214 27.6865 25.0702 25.0742 25.0843 25.1173
25.0682 25.0717 25.0804 25.1086 25.1722 25.2247
25.1546 25.1958 25.0574 25.0604 25.0679 25.0924
25.0333 25.0359 25.0423 25.063 25.1315 25.164
25.0948 25.1189 25.0442 25.0475 25.0568 25.0883
25.0418 25.0446 25.0525 25.0795 25.1422 25.1947
25.1247 25.166 25.0306 25.033 25.0399 25.0633
25.0062 25.0083 25.0141 25.0337 25.1015 25.1343
25.0648 25.0891 25.2781 25.3469 25.2347 25.286
25.4447 25.596 25.3645 25.5021 25.1919 25.2301
25.1369 25.1644 25.295 25.4231 25.2201 25.3426
25.2488 25.3183 25.206 25.2585 25.4176 25.569
25.3394 25.4776 25.1635 25.2032 25.1085 25.1378
25.2711 25.4001 25.1966 25.3201 25.0053 25.0075
25.013 24.9769 24.9789 24.9835 25.0306 24.9986
24.9414 24.943 24.9469 24.8991 24.9004 24.9034
24.9592 24.9128 25.0569 25.0205 25.0752 25.0345
24.9764 24.9253 24.9866 24.9321 24.8417 24.8426
24.8444 24.8502 24.7843 24.7848 24.7857 24.7882
24.857 24.8599 24.7895 24.7884 24.9778 24.9796
24.9846 24.9492 24.9508 24.955 25.0013 24.9692
24.9135 24.9147 24.9181 24.871 24.8719 24.8745
24.9297 24.8833 25.0269 24.9904 25.0454 25.0048
24.9464 24.8954 24.9569 24.9026 24.8134 24.814
24.8155 24.8208 24.7558 24.756 24.7568 24.7589
24.8274 24.8306 24.7602 24.7595 25.0874 25.0432
25.1098 25.0636 24.993 24.9376 25.0135 24.9603
25.1633 25.1181 25.2857 25.2431 25.072 25.0253
25.2024 25.1634 24.8648 24.891 24.792 24.8198
24.9642 25.1124 24.8984 25.0547 25.0591 25.0149
25.0833 25.0371 24.9648 24.9094 24.987 24.9336
25.1397 25.0943 25.2631 25.2202 25.0479 25.0005
25.1789 25.139 24.8368 24.8642 24.7642 24.7931
24.939 25.0872 24.8731 25.0292 25.8022 26.0614
25.7022 25.963 26.3238 26.5624 26.2311 26.4758
25.62 25.8835 25.5395 25.8075 26.1569 26.4068
26.0866 26.3418 25.7751 26.0335 25.6776 25.9374
26.2947 26.5321 26.2039 26.4471 25.597 25.8592
25.5169 25.7834 26.1307 26.3789 26.0605 26.3137
26.8285 27.1169 26.7487 27.0442 27.4031 27.6722
27.3366 27.6108 26.6855 26.9866 26.6258 26.9322
27.284 27.5622 27.234 27.5157 26.797 27.0842
26.7185 27.0123 27.369 27.6369 27.3032 27.576
26.6557 26.9551 26.5959 26.9004 27.2507 27.5274
27.2004 27.4806 25.4858 25.4475 25.7584 25.7247
25.4131 25.3819 25.6959 25.6711 26.042 26.0119
26.3008 26.2735 25.987 25.9667 26.2515 26.2344
25.3411 25.6392 25.2928 25.6008 25.9414 26.2139
25.9109 26.1898 25.4629 25.4241 25.7339 25.6995
25.3889 25.3565 25.6698 25.6439 26.0153 25.9846
26.2722 26.2444 25.9589 25.9374 26.2215 26.2034
25.3147 25.611 25.2661 25.5722 25.9112 26.1821
25.8804 26.1576 26.5885 26.5639 26.8982 26.8759
26.5445 26.5302 26.8589 26.847 27.2027 27.1823
27.4864 27.4672 27.1668 27.1566 27.4528 27.4435
26.5143 26.8348 26.4962 26.8218 27.1472 27.4357
27.138 27.429 26.558 26.5328 26.8658 26.843
26.5127 26.4975 26.8252 26.8125 27.1686 27.1477
27.4508 27.4312 27.1316 27.1206 27.4161 27.4061
26.4808 26.7996 26.4623 26.7863 27.1105 27.3977
27.101 27.3906 27.62 27.8978 27.6798 27.9541
28.1713 28.433 28.2238 28.4819 27.7993 28.0611
27.912 28.1614 28.3189 28.5662 28.4069 28.6426
27.5835 27.8596 27.6446 27.917 28.1315 28.3919
28.1852 28.4419 27.763 28.0234 27.8747 28.1232
28.2799 28.526 28.3677 28.6024 28.6646 28.8595
28.7101 28.9017 29.0234 29.1643 29.2832 29.0625
29.2002 29.3161 28.7854 28.9698 28.8526 29.0298
29.1247 29.2574 29.3688 29.1791 29.3077 29.4157
28.6225 28.8166 28.669 28.8598 28.98 29.1206
29.2393 29.02 29.1575 29.2731 28.7443 28.9279
28.8116 28.9881 29.0822 29.2146 29.3258 29.1369
29.2651 29.3728 27.9866 28.2264 28.0115 28.2455
28.4627 28.6894 28.4763 28.6982 27.9927 28.2258
27.9693 28.2028 28.4559 28.6777 28.4335 28.6562
27.9486 28.1879 27.9739 28.2072 28.4236 28.6494
28.4374 28.6585 27.9556 28.1878 27.9325 28.165
28.417 28.638 28.3947 28.6165 28.8924 29.0652
28.8978 29.0689 29.2114 29.3382 29.4449 29.2147
29.3422 29.4503 28.8776 29.0497 28.8571 29.0303
29.197 29.3265 29.4366 29.1791 29.3101 29.4217
28.8516 29.0237 28.8572 29.0276 29.1694 29.2958
29.4022 29.1729 29.3 29.4078 28.837 29.0085
28.8165 28.9891 29.1552 29.2843 29.3939 29.1372
29.2679 29.379 29.3972 29.5013 29.5646 29.4267
29.5262 29.586 29.6207 29.6779 29.6384 29.6905
29.4747 29.5692 29.6249 29.5177 29.6088 29.6617
29.673 29.7194 29.707 29.7494 29.3532 29.4573
29.5206 29.3835 29.4831 29.5429 29.5768 29.6343
29.5954 29.6476 29.4315 29.5259 29.5816 29.4745
29.5655 29.6184 29.6298 29.6762 29.6636 29.706
29.7139 29.7357 29.722 29.7399 29.7492 29.7525
29.7495 29.7494 29.7458 29.7595 29.7724 29.7833
29.7649 29.7615 29.7864 29.7814 29.6705 29.6925
29.6792 29.6973 29.7061 29.7094 29.7069 29.7066
29.7026 29.7162 29.7287 29.7395 29.7215 29.7178
29.7423 29.7369 29.5447 29.6351 29.687 29.552
29.6443 29.6971 29.7313 29.7721 29.7421 29.7838
29.5404 29.6353 29.6898 29.5271 29.6242 29.6801
29.7366 29.7804 29.7282 29.7738 29.5018 29.592
29.6437 29.509 29.601 29.6535 29.6878 29.7284
29.6981 29.7394 29.4972 29.5918 29.6459 29.4837
29.5803 29.6358 29.6922 29.7356 29.6835 29.7286
29.7937 29.8037 29.8062 29.8173 29.8064 29.8017
29.8215 29.8186 29.8048 29.8178 29.7999 29.8145
29.8241 29.8235 29.8225 29.8236 29.7496 29.7593
29.7614 29.772 29.7617 29.7566 29.7758 29.7726
29.7595 29.7721 29.7542 29.7683 29.778 29.7769
29.7759 29.7766 27.9215 28.1572 27.8643 28.1035
28.3902 28.615 28.3396 28.5672 27.8189 28.0607
27.7751 28.0189 28.299 28.5284 28.2587 28.4893
27.8851 28.1197 27.8282 28.0663 28.3517 28.5756
28.3013 28.5278 27.7828 28.0234 27.7387 27.9813
28.2606 28.489 28.22 28.4496 28.8181 28.9936
28.7727 28.9504 29.1447 29.2783 29.3924 29.1038
29.2396 29.3562 28.7355 28.9147 28.6973 28.8772
29.0694 29.2067 29.3247 29.0325 29.1705 29.2894
28.7777 28.9525 28.7324 28.9094 29.103 29.2361
29.3498 29.0621 29.1975 29.3135 28.6952 28.8736
28.6567 28.8358 29.0276 29.1645 29.2819 28.9906
29.1281 29.2465 27.7471 27.7286 27.9917 27.9736
27.7146 27.7056 27.9595 27.9504 28.232 28.2138
28.4627 28.4441 28.1993 28.1894 28.4288 28.4178
27.6985 27.9432 27.6932 27.9384 28.1815 28.4086
28.1767 28.4029 27.7102 27.6913 27.9537 27.9352
27.6767 27.6671 27.9205 27.9108 28.193 28.1743
28.4227 28.4037 28.1593 28.1489 28.3879 28.3764
27.6594 27.9031 27.6537 27.898 28.1405 28.3668
28.1353 28.3608 28.6706 28.6514 28.8502 28.8304
28.635 28.6226 28.8128 28.799 29.0053 28.9848
29.1431 29.262 29.122 29.2405 28.9661 28.9508
29.1023 29.2198 29.0855 29.2017 28.6117 28.7861
28.6047 28.7777 28.936 29.0687 29.183 28.926
29.0572 29.1698 28.6297 28.6102 28.8086 28.7885
28.5933 28.5805 28.7705 28.7563 28.9632 28.9424
29.1005 29.2189 29.0792 29.1971 28.9234 28.9076
29.0591 29.1762 29.042 29.1577 28.5691 28.743
28.5619 28.7343 28.8924 29.0248 29.1387 28.8822
29.013 29.1251 29.5011 29.6014 29.6597 29.4677
29.5712 29.6318 29.7102 29.7588 29.6848 29.7366
29.4382 29.5439 29.6063 29.4042 29.5115 29.5753
29.6611 29.7154 29.6316 29.6883 29.4577 29.5576
29.6153 29.4244 29.5274 29.5874 29.6654 29.7133
29.6399 29.691 29.3948 29.5 29.5618 29.3606
29.4674 29.5306 29.6161 29.6697 29.5865 29.6424
29.7877 29.805 29.7684 29.7883 29.8158 29.8197
29.8019 29.8085 29.7495 29.7714 29.7245 29.7483
29.787 29.7958 29.766 29.777 29.7416 29.7586
29.7223 29.7419 29.769 29.7724 29.755 29.7612
29.7032 29.7248 29.6781 29.7017 29.74 29.7484
29.7189 29.7295 29.3769 29.3551 29.4848 29.5492
29.4629 29.5276 29.3336 29.3141 29.4408 29.5054
29.4202 29.4843 29.6064 29.5851 29.6643 29.6437
29.5628 29.5413 29.6217 29.6 29.2934 29.3978
29.461 29.2777 29.3806 29.443 29.5172 29.5752
29.4985 29.5558 29.3331 29.3111 29.4405 29.5045
29.4184 29.4827 29.2894 29.2696 29.3961 29.4603
29.3753 29.4389 29.5611 29.5397 29.6184 29.5977
29.5173 29.4955 29.5756 29.5537 29.2486 29.3526
29.4153 29.2327 29.3352 29.3971 29.4712 29.5287
29.4523 29.5091 29.7019 29.682 29.7269 29.7078
29.6605 29.6388 29.6868 29.6652 29.746 29.7277
29.7583 29.741 29.7072 29.6859 29.7211 29.7001
29.6138 29.64 29.5939 29.6198 29.6606 29.6749
29.6401 29.6541 29.6554 29.6355 29.6802 29.661
29.6139 29.592 29.6399 29.6183 29.6988 29.6805
29.7108 29.6934 29.66 29.6386 29.6736 29.6525
29.5669 29.593 29.5468 29.5726 29.6133 29.6273
29.5927 29.6065 24.7432 24.7435 24.7436 24.7437
24.6781 24.6779 24.6768 24.673 24.7412 24.737
24.6644 24.6553 24.6088 24.6082 24.6061 24.5988
24.559 24.5582 24.5553 24.5458 24.5843 24.57
24.5275 24.5097 24.7147 24.7148 24.7149 24.7148
24.6497 24.6494 24.6483 24.6444 24.7122 24.7085
24.636 24.6275 24.5805 24.5799 24.5778 24.5706
24.5308 24.5299 24.5272 24.5179 24.5565 24.5429
24.5001 24.4831 24.7392 24.7673 24.6543 24.6815
24.8485 25.0098 24.765 24.9328 24.5648 24.5893
24.5016 24.5243 24.6734 24.8473 24.609 24.7878
24.7118 24.741 24.6277 24.656 24.8235 24.9845
24.7408 24.9084 24.539 24.5648 24.4764 24.5006
24.6505 24.8242 24.5872 24.7659 24.508 24.507
24.5035 24.4919 24.4414 24.4401 24.4359 24.4222
24.4704 24.4497 24.3974 24.3739 24.3593 24.3578
24.353 24.3378 24.2789 24.2773 24.2723 24.2566
24.3111 24.287 24.2303 24.2083 24.48 24.4789
24.4756 24.4644 24.4136 24.4123 24.4083 24.3951
24.4434 24.4236 24.371 24.3484 24.3318 24.3302
24.3258 24.3112 24.2517 24.2501 24.2455 24.2304
24.2852 24.2622 24.205 24.1841 24.4391 24.4607
24.3616 24.3836 24.5474 24.7323 24.4755 24.6706
24.276 24.3032 24.2023 24.2385 24.4072 24.6191
24.358 24.5883 24.4146 24.4379 24.3378 24.3617
24.5266 24.7114 24.4557 24.6507 24.253 24.2821
24.1799 24.2179 24.388 24.5995 24.3388 24.5683
25.2543 25.5694 25.1872 25.5143 25.8858 26.1696
25.8413 26.1335 25.1131 25.4547 25.0625 25.415
25.7944 26.0966 25.7642 26.0734 25.2277 25.541
25.1614 25.4865 25.8554 26.1375 25.8114 26.1019
25.0886 25.4279 25.0391 25.3892 25.7654 26.0656
25.7358 26.043 26.4806 26.8103 26.4525 26.7891
27.1296 27.4225 27.1135 27.4098 26.4247 26.7689
26.408 26.7573 27.0989 27.3988 27.091 27.3931
26.4468 26.7748 26.419 26.7538 27.0925 27.3841
27.0766 27.3716 26.3918 26.7341 26.3755 26.7229
27.0624 27.3609 27.0547 27.3554 25.0171 25.3813
24.97 25.3494 25.7399 26.056 25.7194 26.0435
24.9374 25.3339 24.9242 25.3355 25.7158 26.0478
25.727 26.0653 24.9946 25.3561 24.9481 25.3244
25.712 26.026 25.6916 26.0135 24.9154 25.3087
24.9015 25.3096 25.6877 26.0174 25.6983 26.0343
26.3965 26.7505 26.3906 26.7494 27.0871 27.3909
27.089 27.3939 26.4009 26.7637 26.423 26.7884
27.1049 27.4097 27.1303 27.4343 26.3643 26.7162
26.3584 26.7152 27.0511 27.3533 27.0529 27.3563
26.3684 26.7291 26.3899 26.7534 27.0686 27.372
27.0936 27.3963 24.202 24.2003 24.1953 24.18
24.1483 24.1467 24.1419 24.1276 24.1559 24.1377
24.106 24.0913 24.1145 24.1129 24.1083 24.0949
24.0671 24.0657 24.0615 24.0499 24.0754 24.0633
24.0342 24.0264 24.1751 24.1735 24.1689 24.1544
24.1217 24.1202 24.1159 24.1024 24.1311 24.1141
24.0817 24.0682 24.0881 24.0866 24.0825 24.0699
24.0411 24.0397 24.0361 24.0253 24.0514 24.0404
24.0106 24.004 24.1381 24.1841 24.0965 24.1487
24.3181 24.5653 24.2914 24.5492 24.0714 24.1274
24.0391 24.1004 24.2752 24.5396 24.2548 24.5287
24.1162 24.164 24.075 24.129 24.2991 24.5451
24.2728 24.5294 24.0503 24.1081 24.0186 24.082
24.257 24.5201 24.2378 24.5106 24.028 24.0267
24.0233 24.0146 23.9933 23.9924 23.99 23.9849
24.0047 24.0033 23.9823 23.989 23.9593 23.959
23.9583 23.9594 23.9324 23.9327 23.9338 23.9416
23.9693 23.9907 23.9651 24.0031 24.0022 24.0011
23.9982 23.9903 23.9679 23.9671 23.9652 23.9609
23.9815 23.9813 23.9592 23.9671 23.9342 23.934
23.9337 23.9355 23.9076 23.908 23.9095 23.9177
23.9462 23.9688 23.9419 23.9808 24.0226 24.0917
24.0172 24.0969 24.2553 24.5408 24.2735 24.5719
24.0366 24.1375 24.0694 24.1941 24.3376 24.6529
24.4177 24.7463 24.0027 24.074 23.9974 24.0795
24.2395 24.5236 24.2577 24.5545 24.0166 24.1195
24.0487 24.1747 24.3205 24.6339 24.3984 24.7249
24.9168 25.3415 24.9117 25.3463 25.7419 26.0859
25.7537 26.1022 24.9092 25.3505 24.9092 25.3606
25.7625 26.114 25.7794 26.1351 24.8939 25.3153
24.889 25.3204 25.713 26.0548 25.7249 26.0711
24.887 25.3249 24.8881 25.3359 25.734 26.0831
25.7516 26.1048 26.4479 26.8159 26.4675 26.8374
27.1585 27.4617 27.1806 27.4834 26.4815 26.8526
26.5055 26.8779 27.1961 27.4984 27.2213 27.5227
26.4147 26.7807 26.4344 26.8023 27.1217 27.4236
27.1439 27.4452 26.4485 26.8176 26.4729 26.8432
27.1593 27.4603 27.1849 27.4848 24.9323 25.3925
24.9736 25.4402 25.816 26.1738 25.8659 26.2241
25.0628 25.53 25.159 25.622 25.9524 26.3063
26.0374 26.3847 24.912 25.3683 24.9528 25.4153
25.7884 26.1436 25.8377 26.1932 25.0403 25.5037
25.1344 25.5938 25.9229 26.2743 26.0064 26.3514
26.5448 26.9164 26.594 26.9632 27.258 27.5568
27.3015 27.5968 26.6708 27.0336 26.7419 27.0974
27.3656 27.6548 27.4225 27.7056 26.5124 26.8818
26.5608 26.9279 27.2216 27.5189 27.2645 27.5584
26.6365 26.9974 26.7066 27.0602 27.3277 27.6156
27.3838 27.6657 27.6879 27.9337 27.6773 27.9241
28.1719 28.3977 28.1625 28.3877 27.6684 27.9161
27.6638 27.9118 28.1546 28.3791 28.1501 28.3738
27.6484 27.8932 27.6379 27.8836 28.1306 28.3556
28.1212 28.3455 27.6292 27.8758 27.6248 27.8717
28.1133 28.337 28.109 28.3318 28.5988 28.7708
28.5877 28.7585 28.9182 29.0485 29.1603 28.9047
29.0339 29.1449 28.5779 28.7473 28.5715 28.7398
28.8922 29.0201 29.1302 28.8836 29.0106 29.1199
28.5559 28.7274 28.5448 28.715 28.8744 29.0043
29.1156 28.8607 28.9895 29.1 28.535 28.7038
28.5288 28.6964 28.8482 28.9757 29.0853 28.8396
28.9662 29.075 27.6622 27.9101 27.6651 27.9121
28.1476 28.3701 28.1479 28.3682 27.6796 27.9243
27.7023 27.9442 28.157 28.3734 28.1734 28.3857
27.6233 27.8701 27.6263 27.8722 28.1066 28.3282
28.107 28.3264 27.6407 27.8843 27.6631 27.904
28.1161 28.3317 28.1323 28.3438 28.5664 28.7331
28.5619 28.7263 28.8755 29.0013 29.1096 28.8665
28.9902 29.0968 28.5632 28.7237 28.5711 28.7273
28.8603 28.9807 29.0844 28.8598 28.9762 29.0763
28.5237 28.6898 28.5194 28.6831 28.8316 28.957
29.0648 28.8227 28.946 29.0521 28.5207 28.6806
28.5285 28.6841 28.8167 28.9366 29.0399 28.8161
28.9322 29.0318 29.2674 29.3695 29.4314 29.2517
29.353 29.4142 29.4864 29.5433 29.4687 29.5248
29.2362 29.3366 29.3973 29.2252 29.3249 29.3851
29.4512 29.5067 29.4386 29.4937 29.2223 29.324
29.3854 29.2066 29.3073 29.3682 29.4402 29.4965
29.4223 29.478 29.1911 29.2909 29.3511 29.18
29.2791 29.339 29.4047 29.4599 29.3922 29.4468
29.581 29.6067 29.5621 29.5875 29.6268 29.6406
29.6073 29.6207 29.5436 29.5686 29.5302 29.555
29.5881 29.6012 29.5743 29.5872 29.5339 29.5595
29.5149 29.5402 29.5794 29.5929 29.5598 29.573
29.4964 29.5213 29.483 29.5077 29.5406 29.5535
29.5268 29.5395 29.214 29.3129 29.3725 29.1999
29.2973 29.356 29.4255 29.4801 29.4082 29.4619
29.1846 29.2793 29.3363 29.1726 29.2637 29.3184
29.3871 29.4393 29.3672 29.4173 29.1689 29.2672
29.3264 29.1549 29.2517 29.31 29.3791 29.4333
29.3619 29.4152 29.1398 29.2339 29.2906 29.1278
29.2183 29.2728 29.341 29.3927 29.3212 29.3709
29.5163 29.5408 29.4975 29.5217 29.5599 29.5726
29.5404 29.5528 29.4738 29.4973 29.4505 29.4728
29.5153 29.5271 29.4897 29.5005 29.4691 29.4936
29.4505 29.4746 29.5124 29.5249 29.493 29.5052
29.427 29.4503 29.4039 29.4261 29.4681 29.4797
29.4428 29.4534 27.728 27.9674 27.7484 27.9861
28.1933 28.4017 28.2097 28.4153 27.7625 27.999
27.7853 28.0196 28.221 28.4249 28.2392 28.4403
27.6887 27.9271 27.7091 27.9458 28.1521 28.3597
28.1686 28.3734 27.7233 27.9587 27.7462 27.9796
28.1799 28.383 28.1983 28.3985 28.5829 28.735
28.5937 28.7428 28.8634 28.9758 29.072 28.8684
28.9778 29.071 28.6013 28.7485 28.6138 28.7581
28.8722 28.9796 29.0708 28.8788 28.9833 29.0715
28.5403 28.6918 28.5511 28.6997 28.8198 28.9319
29.0276 28.8248 28.9339 29.0267 28.5588 28.7054
28.5713 28.7151 28.8286 28.9358 29.0266 28.8354
28.9396 29.0274 27.8165 28.0477 27.8528 28.0804
28.264 28.4614 28.2927 28.4861 27.9052 28.1274
27.9508 28.1683 28.3344 28.5225 28.3707 28.5545
27.7774 28.0077 27.8133 28.0399 28.223 28.4197
28.2514 28.4441 27.8649 28.0863 27.9099 28.1265
28.2925 28.4799 28.3282 28.5114 28.6314 28.7723
28.6522 28.7895 28.8898 28.991 29.0764 28.9035
29.0012 29.0832 28.6836 28.8163 28.7116 28.8407
28.926 29.0193 29.097 28.947 29.037 29.1115
28.589 28.7294 28.6096 28.7464 28.8464 28.9473
29.0323 28.86 28.9574 29.039 28.6405 28.7728
28.668 28.7967 28.8821 28.9752 29.0526 28.9027
28.9925 29.0667 29.1642 29.2511 29.3032 29.1599
29.2433 29.2932 29.3495 29.3972 29.3375 29.3828
29.1575 29.2385 29.2868 29.1548 29.2319 29.2777
29.3296 29.3733 29.3182 29.3593 29.1194 29.2059
29.2577 29.1152 29.1983 29.2479 29.3037 29.3511
29.2919 29.337 29.1129 29.1935 29.2416 29.1106
29.1874 29.2329 29.2842 29.3275 29.2732 29.314
29.4284 29.4488 29.4121 29.431 29.4642 29.4737
29.445 29.4532 29.4012 29.4191 29.3852 29.4015
29.4321 29.4394 29.413 29.4188 29.3821 29.4024
29.3659 29.3847 29.4175 29.4268 29.3985 29.4065
29.3552 29.3729 29.3397 29.3559 29.3858 29.3929
29.3672 29.3728 29.1569 29.2293 29.2725 29.1599
29.2278 29.268 29.3104 29.3486 29.3033 29.3385
29.1689 29.2315 29.2683 29.1798 29.2385 29.2728
29.3003 29.3318 29.3023 29.3307 29.1125 29.1847
29.2276 29.1155 29.1831 29.2232 29.2652 29.3032
29.2582 29.2932 29.1243 29.1867 29.2233 29.1349
29.1935 29.2276 29.2552 29.2865 29.257 29.2853
29.3724 29.3871 29.3601 29.373 29.3968 29.401
29.381 29.3834 29.3505 29.361 29.3469 29.3553
29.3666 29.3667 29.3588 29.3568 29.3268 29.3413
29.3147 29.3274 29.3509 29.355 29.3352 29.3375
29.3051 29.3154 29.3014 29.3097 29.3209 29.3209
29.3132 29.311 29.7462 29.7341 29.741 29.7277
29.7194 29.701 29.7124 29.6938 29.7509 29.7365
29.7702 29.7556 29.7206 29.7013 29.7396 29.7199
29.7028 29.6903 29.6978 29.6841 29.6752 29.6565
29.6685 29.6496 29.7068 29.6921 29.7253 29.7104
29.6759 29.6564 29.6941 29.6743 29.6807 29.6633
29.6736 29.6561 29.6502 29.6401 29.641 29.6257
29.6801 29.6599 29.6973 29.6744 29.64 29.6192
29.6507 29.6266 29.6361 29.6188 29.6295 29.6121
29.6062 29.5967 29.5973 29.5818 29.6352 29.6151
29.6516 29.6286 29.5951 29.5739 29.6047 29.5802
29.7913 29.7774 29.8101 29.7979 29.762 29.7425
29.7836 29.765 29.8171 29.8066 29.8187 29.8096
29.7937 29.7763 29.7978 29.7812 29.7457 29.7316
29.7636 29.7511 29.7159 29.6963 29.7366 29.7178
29.7701 29.7594 29.7714 29.7619 29.7463 29.7286
29.7499 29.7331 29.719 29.6943 29.7416 29.7161
29.6684 29.6424 29.6892 29.6625 29.7535 29.7283
29.7592 29.7343 29.7015 29.6746 29.7078 29.6811
29.6727 29.6477 29.6942 29.6685 29.6216 29.5953
29.6414 29.6144 29.7057 29.6802 29.7108 29.6858
29.6532 29.6261 29.659 29.6322 29.6285 29.6138
29.609 29.5938 29.6054 29.6099 29.5866 29.5931
29.5989 29.5828 29.6042 29.5869 29.5756 29.5824
29.5789 29.5847 29.5846 29.5687 29.5644 29.5485
29.5594 29.5633 29.5407 29.5468 29.5531 29.5366
29.5575 29.54 29.529 29.5356 29.5317 29.5374
29.6341 29.685 29.6195 29.6717 29.7689 29.8893
29.7559 29.8751 29.6086 29.6598 29.6093 29.658
29.7415 29.857 29.736 29.8466 29.5871 29.6378
29.5729 29.6251 29.7218 29.8425 29.7094 29.8289
29.5617 29.613 29.562 29.6109 29.695 29.8108
29.6892 29.8003 29.6188 29.6005 29.6381 29.619
29.5913 29.5956 29.6087 29.6113 29.6501 29.6306
29.6567 29.6371 29.6196 29.621 29.6256 29.6263
29.5714 29.553 29.5899 29.5706 29.5437 29.5479
29.5603 29.5629 29.6014 29.5819 29.6076 29.5879
29.5708 29.5723 29.5765 29.5772 29.618 29.6636
29.6313 29.6737 29.7374 29.8432 29.7433 29.8444
29.6393 29.6794 29.6436 29.6822 29.7463 29.8442
29.7474 29.8435 29.5704 29.6162 29.5831 29.6257
29.6904 29.7967 29.6957 29.7973 29.5907 29.6311
29.5947 29.6336 29.6984 29.7969 29.6992 29.7958
29.8174 29.8104 29.8088 29.8039 29.8002 29.7852
29.7956 29.7824 29.7981 29.795 29.7813 29.7799
29.7882 29.7764 29.7746 29.7644 29.7698 29.7625
29.7611 29.7559 29.7521 29.7369 29.7474 29.7339
29.7503 29.7469 29.7334 29.7318 29.7398 29.7278
29.7262 29.7158 29.7645 29.7406 29.7632 29.7406
29.7148 29.6887 29.7159 29.6907 29.7586 29.7372
29.7481 29.728 29.7134 29.689 29.7054 29.6819
29.7159 29.6918 29.7145 29.6917 29.6658 29.6396
29.6667 29.6414 29.7098 29.6881 29.6992 29.6789
29.6642 29.6396 29.6561 29.6324 29.764 29.7475
29.7638 29.7482 29.7284 29.7077 29.7297 29.7094
29.7595 29.7447 29.7505 29.7364 29.7267 29.7067
29.7191 29.6995 29.6825 29.6843 29.6616 29.6631
29.6817 29.6746 29.6603 29.6529 29.7161 29.6997
29.7156 29.7 29.6805 29.6598 29.6816 29.6612
29.7111 29.6963 29.7018 29.6878 29.6784 29.6584
29.6705 29.6509 29.6347 29.6362 29.6137 29.615
29.6334 29.626 29.612 29.6044 29.7353 29.722
29.7162 29.7036 29.7054 29.6861 29.6876 29.6686
29.6944 29.6825 29.6716 29.6601 29.6669 29.6482
29.645 29.6265 29.6613 29.6438 29.6393 29.6215
29.6234 29.6016 29.6008 29.5784 29.6864 29.6731
29.667 29.6545 29.6565 29.6373 29.6385 29.6196
29.6451 29.6332 29.6221 29.6107 29.6177 29.599
29.5956 29.5771 29.6126 29.5949 29.5906 29.5727
29.5744 29.5524 29.5517 29.5293 29.6646 29.645
29.667 29.6476 29.6331 29.6329 29.6355 29.6346
29.6659 29.6467 29.6594 29.6405 29.6345 29.633
29.6282 29.6263 29.6153 29.5956 29.6176 29.5982
29.5838 29.5837 29.5861 29.5853 29.6164 29.5972
29.6098 29.5909 29.585 29.5837 29.5787 29.5769
29.6487 29.6855 29.6492 29.6844 29.7484 29.842
29.7453 29.8369 29.6468 29.6808 29.6392 29.672
29.7403 29.8303 29.73 29.8185 29.5997 29.6368
29.6001 29.6356 29.7001 29.7942 29.697 29.789
29.5976 29.6319 29.59 29.6231 29.6919 29.7824
29.6816 29.7705 29.6496 29.6385 29.6309 29.62
29.6236 29.6051 29.6051 29.5865 29.6186 29.6075
29.6163 29.6049 29.5925 29.5736 29.5895 29.5701
29.58 29.561 29.5563 29.5366 29.5475 29.5432
29.5224 29.5172 29.6 29.5889 29.5813 29.5704
29.5741 29.5557 29.5556 29.5371 29.569 29.558
29.5668 29.5555 29.543 29.5242 29.5401 29.5208
29.5307 29.5117 29.5071 29.4874 29.4983 29.4941
29.4732 29.4682 29.6285 29.6166 29.6604 29.6477
29.6006 29.5805 29.6309 29.6099 29.7173 29.7038
29.8046 29.7902 29.6861 29.6641 29.7715 29.7485
29.5526 29.5809 29.5256 29.5528 29.6339 29.7171
29.6047 29.6866 29.5793 29.5674 29.6115 29.5989
29.5514 29.5314 29.5821 29.5612 29.6689 29.6554
29.7567 29.7422 29.6377 29.6158 29.7236 29.7007
29.5037 29.5324 29.4768 29.5044 29.5858 29.6694
29.5566 29.6391 30.0433 30.225 30.0267 30.2062
30.4142 30.5456 30.3971 30.5354 30.0043 30.1807
29.9891 30.1624 30.373 30.5169 30.3551 30.5025
29.9973 30.1793 29.9813 30.161 30.368 30.4982
30.3512 30.4884 29.9588 30.1354 29.9435 30.1168
30.327 30.4702 30.3089 30.4558 29.9825 30.1525
29.979 30.1458 30.3452 30.4952 30.3382 30.4904
29.976 30.1408 29.9735 30.1371 30.3327 30.486
30.3287 30.4824 29.9362 30.1064 29.9324 30.0994
30.2985 30.4482 30.2911 30.4432 29.9291 30.0941
29.9263 30.0901 30.2854 30.4388 30.281 30.4349
29.9696 30.1315 29.9626 30.123 30.3225 30.4765
30.3134 30.4677 29.9545 30.1138 29.9413 30.0994
30.3037 30.4582 30.2888 30.4435 29.9223 30.0843
29.9152 30.0758 30.2747 30.429 30.2656 30.4203
29.9071 30.0666 29.8938 30.0521 30.2559 30.4108
30.241 30.3961 29.9263 29.911 30.0837 30.0678
29.8914 29.8676 30.0476 30.0232 30.2729 30.2569
30.428 30.4125 30.2366 30.2122 30.3929 30.3689
29.835 29.9898 29.8035 29.9574 30.1785 30.3355
30.1455 30.3024 29.8788 29.8635 30.0364 30.0205
29.844 29.8203 30.0004 29.976 30.225 30.2091
30.3807 30.3654 30.1889 30.1645 30.3458 30.3219
29.7879 29.9429 29.7564 29.9105 30.1311 30.2887
30.0981 30.2557 29.6478 29.6492 29.6276 29.6286
29.6462 29.6386 29.6253 29.6173 29.6078 29.6085
29.5936 29.5941 29.6049 29.5964 29.5902 29.5814
29.5999 29.6011 29.5797 29.5805 29.5979 29.5901
29.5771 29.5689 29.5599 29.5604 29.5457 29.546
29.5566 29.548 29.542 29.5331 29.6247 29.6066
29.6029 29.5842 29.5855 29.5627 29.5625 29.5391
29.5815 29.5622 29.5661 29.5465 29.5398 29.5156
29.5236 29.4988 29.576 29.5578 29.5543 29.5355
29.5365 29.5137 29.5137 29.4902 29.5329 29.5135
29.5176 29.4978 29.491 29.4667 29.4748 29.45
29.5788 29.579 29.5587 29.5587 29.5749 29.5659
29.5543 29.545 29.5324 29.532 29.5051 29.504
29.5273 29.5176 29.4988 29.4885 29.5309 29.531
29.5109 29.5108 29.5268 29.5176 29.5063 29.4968
29.4849 29.4843 29.4578 29.4565 29.4795 29.4696
29.4512 29.4408 29.5503 29.5302 29.529 29.5085
29.5069 29.4816 29.4846 29.4587 29.5011 29.4801
29.4715 29.4499 29.4556 29.4291 29.4249 29.3977
29.5019 29.4817 29.4807 29.4601 29.4582 29.4329
29.4361 29.4102 29.453 29.4319 29.4236 29.4019
29.4074 29.3808 29.3769 29.3496 29.5402 29.52
29.5157 29.4947 29.5052 29.4993 29.4789 29.472
29.4913 29.4694 29.474 29.4513 29.4525 29.4444
29.4337 29.4248 29.491 29.4709 29.4668 29.4458
29.4561 29.4504 29.43 29.4233 29.4425 29.4205
29.4252 29.4026 29.4037 29.3958 29.385 29.3763
29.507 29.5334 29.4785 29.5037 29.5844 29.6656
29.5534 29.6333 29.4497 29.4736 29.4292 29.4521
29.522 29.6005 29.4995 29.577 29.4583 29.4851
29.43 29.4556 29.5365 29.6181 29.5057 29.5861
29.4014 29.4256 29.381 29.4042 29.4744 29.5534
29.452 29.53 29.4562 29.4328 29.4326 29.4084
29.4145 29.4047 29.389 29.3782 29.4022 29.377
29.37 29.3441 29.3566 29.3446 29.3227 29.3096
29.4075 29.3842 29.3841 29.3599 29.3659 29.3564
29.3407 29.3301 29.3539 29.3288 29.322 29.2961
29.3085 29.2967 29.2748 29.2619 29.4082 29.4302
29.3805 29.4013 29.4765 29.553 29.4463 29.5214
29.3456 29.3648 29.3092 29.327 29.4082 29.4817
29.3689 29.4407 29.3601 29.3824 29.3327 29.3538
29.4292 29.5062 29.3992 29.4748 29.2979 29.3175
29.2618 29.28 29.3614 29.4354 29.3224 29.3947
29.4771 29.475 29.4555 29.4525 29.469 29.458
29.4457 29.4338 29.4409 29.4372 29.419 29.4141
29.4298 29.4173 29.4057 29.392 29.4301 29.4279
29.4086 29.4055 29.4217 29.4105 29.3986 29.3866
29.3942 29.3904 29.3728 29.3678 29.3828 29.3702
29.3593 29.3455 29.4402 29.4179 29.4152 29.3922
29.3922 29.3643 29.3657 29.3372 29.398 29.3744
29.3716 29.347 29.3474 29.3183 29.319 29.289
29.3926 29.3702 29.3678 29.3447 29.3444 29.3165
29.3182 29.2895 29.3508 29.327 29.325 29.3002
29.3 29.2708 29.2722 29.2422 29.3996 29.3935
29.3804 29.3728 29.3838 29.3688 29.3618 29.3452
29.3614 29.3518 29.3495 29.338 29.3389 29.3203
29.3234 29.3029 29.3535 29.3472 29.3344 29.3267
29.3374 29.3222 29.3155 29.2989 29.3156 29.3059
29.3037 29.2921 29.2929 29.2743 29.2775 29.257
29.347 29.321 29.3219 29.2945 29.2919 29.2607
29.264 29.2316 29.2948 29.2654 29.2753 29.2438
29.2329 29.1985 29.2092 29.1726 29.3003 29.2743