<VTKFile type="UnstructuredGrid" version="1.0" byte_order="LittleEndian" header_type="UInt64">
<UnstructuredGrid>
<Piece NumberOfPoints="4722" NumberOfCells="2944">
<PointData>
</PointData>
<CellData Scalars="Temperature (C)">
<DataArray type="Float32" Name="Temperature (C)" format="ascii" RangeMin="22.5212" RangeMax="24.9765">
23.2901 23.2859 23.2488 23.2471 23.3122 23.3059
23.4051 23.3821 23.2716 23.2678 23.3703 23.3477
23.2328 23.232 23.195 23.1951 23.256 23.2531
23.3559 23.3339 23.2184 23.2165 23.3197 23.2982
23.5357 23.5104 23.5035 23.4784 23.6618 23.6355
23.7419 23.7829 23.7148 23.7559 23.6309 23.6047
23.7109 23.752 23.684 23.7251 23.49 23.4654
23.4553 23.4311 23.6179 23.5922 23.6981 23.7394
23.6717 23.7129 23.5847 23.5594 23.6662 23.7079
23.6402 23.6819 23.82 23.793 23.7895 23.7626
23.9131 23.8853 23.8841 23.8564 23.7772 23.7506
23.7456 23.7195 23.8718 23.8446 23.8398 23.813
23.1359 23.1361 23.1585 23.1565 23.2562 23.2352
23.0906 23.0904 23.1124 23.1102 23.2069 23.1865
23.0532 23.0528 23.0744 23.072 23.166 23.1459
23.0155 23.0148 23.036 23.0333 23.1242 23.1045
23.3906 23.3669 23.5221 23.4973 23.6041 23.646
23.5786 23.6205 23.3385 23.3153 23.4681 23.4439
23.5492 23.5905 23.5242 23.5655 23.6837 23.6581
23.7778 23.7515 23.6279 23.6029 23.7213 23.6956
23.2947 23.2719 23.4219 23.3981 23.5014 23.5421
23.4769 23.5175 23.25 23.2274 23.3743 23.3507
23.4519 23.4916 23.4275 23.4672 23.5789 23.5543
23.6709 23.6456 23.5275 23.5031 23.6174 23.5924
24.0469 24.0183 24.0188 23.9904 24.1609 24.1317
24.1338 24.1047 24.0068 23.9788 23.9753 23.9477
24.1221 24.0935 24.0914 24.0632 24.2538 24.2242
24.2278 24.1983 24.3294 24.2994 24.3049 24.275
24.2166 24.1876 24.1873 24.1586 24.2944 24.265
24.2668 24.2377 24.399 24.3687 24.376 24.3458
24.4611 24.4307 24.4389 24.4085 24.3662 24.3364
24.3411 24.3116 24.4295 24.3996 24.4055 24.3759
24.5128 24.4823 24.4911 24.4607 24.5632 24.5327
24.5417 24.5111 24.482 24.452 24.4586 24.4289
24.5326 24.5025 24.5094 24.4795 23.9138 23.8866
24.0313 24.0035 23.8568 23.8302 23.9746 23.9474
24.1296 24.1013 24.2135 24.1848 24.074 24.0462
24.1593 24.1311 23.8052 23.779 23.9225 23.8957
23.7495 23.7237 23.8658 23.8394 24.0222 23.9948
24.1081 24.0804 23.9651 23.9382 24.0515 24.0241
24.2897 24.2608 24.3533 24.3242 24.2352 24.2067
24.2994 24.2706 24.4071 24.3778 24.4586 24.4291
24.3541 24.3251 24.4066 24.3774 24.1846 24.1565
24.2496 24.2212 24.1287 24.101 24.1947 24.1666
24.3053 24.2767 24.3588 24.3299 24.2513 24.223
24.3057 24.2772 22.9778 22.9765 22.9973 22.9941
23.0814 23.0621 22.9422 22.9401 22.9607 22.9568
23.0399 23.0209 22.9098 22.907 22.9274 22.9228
23.0022 22.9834 22.8798 22.8765 22.8967 22.8916
22.9678 22.9492 23.2027 23.1805 23.3233 23.3
23.3988 23.4373 23.3746 23.4132 23.1544 23.1329
23.27 23.2474 23.3431 23.3806 23.3197 23.3572
23.4723 23.4482 23.56 23.5353 23.4147 23.3913
23.5004 23.4763 23.1102 23.0892 23.2204 23.1985
23.291 23.3272 23.2682 23.3045 23.0706 23.05
23.176 23.1545 23.2439 23.279 23.2216 23.2567
23.3604 23.3376 23.4439 23.4204 23.3111 23.2888
23.3922 23.3692 22.8458 22.842 22.862 22.8564
22.9296 22.9112 22.8064 22.8022 22.822 22.816
22.8865 22.8683 22.7656 22.7612 22.7807 22.7745
22.8429 22.8249 22.724 22.7194 22.7387 22.7323
22.799 22.7811 23.0273 23.007 23.1277 23.1066
23.1927 23.2264 23.1709 23.2045 22.9795 22.9595
23.0751 23.0544 23.137 23.1691 23.1156 23.1477
23.2573 23.2354 23.3354 23.3129 23.1987 23.1773
23.2735 23.2514 22.9319 22.9122 23.0233 23.0029
23.0824 23.113 23.0614 23.092 22.8846 22.8651
22.9722 22.9521 23.0286 23.0579 23.0079 23.0373
23.1413 23.1203 23.213 23.1913 23.0849 23.0643
23.1536 23.1323 23.6897 23.6642 23.8048 23.7787
23.6278 23.6029 23.742 23.7165 23.9036 23.8771
23.99 23.9631 23.8408 23.8147 23.9271 23.9006
23.569 23.5447 23.682 23.657 23.5146 23.4907
23.6259 23.6013 23.7803 23.7547 23.8666 23.8405
23.7233 23.6981 23.8089 23.7833 24.0678 24.0405
24.1345 24.1069 24.0052 23.9783 24.0725 24.0452
24.192 24.164 24.2471 24.2189 24.1303 24.1028
24.1858 24.1579 23.9446 23.9181 24.0119 23.985
23.8866 23.8605 23.9536 23.9271 24.0699 24.0427
24.1253 24.0978 24.0113 23.9845 24.0664 24.0393
23.4543 23.4309 23.5631 23.539 23.388 23.3651
23.4935 23.4699 23.6588 23.6341 23.7433 23.718
23.5866 23.5623 23.669 23.6442 23.323 23.3005
23.4246 23.4014 23.2589 23.2369 23.3563 23.3336
23.5145 23.4907 23.5943 23.57 23.4426 23.4193
23.5194 23.4956 23.82 23.7943 23.8863 23.8602
23.7441 23.7188 23.809 23.7833 23.9434 23.9169
23.9978 23.971 23.8648 23.8388 23.918 23.8918
23.6671 23.6424 23.7301 23.705 23.5895 23.5652
23.6502 23.6256 23.7844 23.7589 23.8362 23.8104
23.7026 23.6777 23.7526 23.7275 22.6824 22.6777
22.6967 22.6903 22.7554 22.7378 22.6419 22.6372
22.656 22.6495 22.7133 22.6959 22.6042 22.5995
22.6181 22.6116 22.6742 22.657 22.5711 22.5664
22.5848 22.5783 22.6399 22.6228 22.8381 22.8189
22.9222 22.9025 22.9761 23.0041 22.9558 22.9838
22.7933 22.7743 22.8741 22.8546 22.9255 22.9522
22.9055 22.9323 23.0299 23.0097 23.0956 23.0747
22.9769 22.9569 23.0395 23.019 22.7516 22.7329
22.8292 22.8101 22.8782 22.9036 22.8585 22.884
22.7148 22.6964 22.7892 22.7703 22.8356 22.8597
22.8163 22.8404 22.927 22.9075 22.9866 22.9665
22.8818 22.8626 22.9383 22.9185 22.5451 22.5404
22.5586 22.5522 22.6129 22.5959 22.5289 22.5242
22.5422 22.5358 22.5957 22.5788 22.5259 22.5212
22.5391 22.5327 22.5918 22.5751 22.5397 22.5349
22.5528 22.5463 22.6045 22.5878 22.6853 22.6671
22.7564 22.7377 22.8001 22.8227 22.7811 22.8037
22.6657 22.6476 22.7332 22.7147 22.774 22.795
22.7551 22.7762 22.8435 22.8246 22.8966 22.8772
22.8143 22.7957 22.8636 22.8445 22.6591 22.6412
22.7226 22.7044 22.76 22.7793 22.7415 22.7609
22.6685 22.6506 22.7272 22.7091 22.7608 22.778
22.7425 22.7598 22.797 22.7787 22.842 22.8233
22.7937 22.7756 22.8338 22.8154 23.1961 23.1745
23.2891 23.2669 23.1351 23.114 23.2235 23.2016
23.3716 23.3487 23.4449 23.4216 23.3017 23.2793
23.3713 23.3485 23.0772 23.0564 23.1605 23.1392
23.0233 23.003 23.1014 23.0804 23.2342 23.2123
23.2998 23.2775 23.1702 23.1488 23.2314 23.2097
23.5119 23.4882 23.5701 23.546 23.4349 23.4117
23.4902 23.4667 23.6203 23.5959 23.6684 23.6438
23.538 23.5143 23.584 23.56 23.3597 23.3371
23.4119 23.389 23.2874 23.2653 23.3361 23.3138
23.4572 23.434 23.5008 23.4775 23.3786 23.3561
23.4198 23.3972 22.9758 22.9558 23.048 23.0276
22.9363 22.9167 23.0021 22.9822 23.1115 23.0907
23.168 23.1469 23.0598 23.0396 23.1111 23.0906
22.9074 22.8884 22.9662 22.9468 22.891 22.8724
22.9419 22.923 23.0176 22.9979 23.0632 23.0434
22.9862 22.9672 23.0256 23.0065 23.2197 23.1983
23.2648 23.2432 23.1581 23.1374 23.1992 23.1784
23.3042 23.2825 23.3426 23.3208 23.2353 23.2144
23.2708 23.2498 23.105 23.0851 23.1418 23.1218
23.0619 23.0428 23.094 23.0749 23.1743 23.1543
23.2065 23.1865 23.1226 23.1035 23.1513 23.1323
22.5744 22.5694 22.5872 22.5805 22.6375 22.6207
22.633 22.6274 22.6454 22.638 22.6932 22.676
22.7175 22.7109 22.7292 22.7206 22.7732 22.7552
22.8248 22.8159 22.8357 22.8245 22.8742 22.8544
22.697 22.6792 22.7497 22.7318 22.7786 22.7933
22.7605 22.7754 22.7464 22.7284 22.7912 22.7732
22.8143 22.8261 22.7963 22.8082 22.8068 22.789
22.8412 22.8232 22.8368 22.8193 22.8647 22.8469
22.8172 22.7988 22.8518 22.8337 22.8681 22.8765
22.8502 22.8588 22.9056 22.886 22.9277 22.9088
22.9369 22.9419 22.9184 22.9238 22.8843 22.8669
22.9051 22.8876 22.9469 22.9292 22.9612 22.9436
22.9187 22.906 22.9281 22.9127 22.961 22.9373
22.9799 22.9571 22.9931 22.9715 22.9987 23.0024
22.9777 22.9817 23.0062 22.9861 23.0183 22.9983
22.8891 22.871 22.9313 22.9131 22.9022 22.8845
22.9351 22.9174 22.9679 22.9497 23.0007 22.9825
22.9636 22.9461 22.9895 22.9721 22.9321 22.9149
22.9556 22.9387 22.9793 22.9622 22.9949 22.9782
22.9762 22.9596 22.9952 22.9789 23.0085 22.9924
23.0214 23.0057 23.0311 23.013 23.0582 23.0402
23.0137 22.9966 23.0357 23.0188 23.0827 23.0648
23.1076 23.0898 23.0559 23.0391 23.0769 23.0603
23.0133 22.9973 23.0301 23.0144 23.0339 23.0187
23.0457 23.0309 23.046 23.0306 23.0629 23.0478
23.0571 23.0427 23.0698 23.0557 23.033 23.0138
23.0454 23.0268 23.0559 23.0379 23.0655 23.0481
23.0745 23.0578 23.0829 23.0667 23.0909 23.0752
23.1002 23.0848 24.2631 24.2694 24.2434 24.2493
24.2876 24.266 24.3449 24.3198 24.2413 24.2475
24.2215 24.2274 24.2651 24.2439 24.2084 24.2152
24.1895 24.1956 24.2331 24.2124 24.322 24.2977
24.2898 24.2661 24.4294 24.402 24.5104 24.4813
24.4097 24.3828 24.3806 24.3543 24.4946 24.4657
24.4701 24.4417 24.1794 24.187 24.1614 24.168
24.2062 24.1857 24.1575 24.1666 24.141 24.1484
24.1879 24.1678 24.2636 24.2404 24.2469 24.2242
24.1377 24.1491 24.1231 24.1318 24.1735 24.1535
24.1249 24.1393 24.1128 24.1229 24.1667 24.1467
24.2343 24.212 24.229 24.2069 24.3577 24.3316
24.3431 24.3176 24.4517 24.4234 24.4406 24.4128
24.3317 24.3066 24.3265 24.3018 24.4317 24.4042
24.4273 24.4003 24.5859 24.5554 24.6546 24.6233
24.5739 24.5436 24.5547 24.5247 24.6461 24.6149
24.6321 24.6011 24.7145 24.6826 24.763 24.7308
24.709 24.6771 24.6996 24.6679 24.7599 24.7276
24.7545 24.7222 24.5415 24.5114 24.5348 24.5051
24.6241 24.593 24.6221 24.5913 24.5292 24.4998
24.5266 24.4975 24.6202 24.5895 24.6198 24.5894
24.6966 24.6647 24.6991 24.6674 24.7557 24.7232
24.762 24.7296 24.7008 24.6691 24.7026 24.6711
24.7668 24.7345 24.7705 24.7383 24.8018 24.7694
24.8324 24.7998 24.8008 24.7682 24.7986 24.766
24.8329 24.8002 24.8334 24.8006 24.8535 24.8208
24.8685 24.8358 24.8552 24.8224 24.8577 24.8247
24.8711 24.8382 24.875 24.842 24.8033 24.7704
24.8128 24.78 24.841 24.8078 24.853 24.8199
24.8202 24.7874 24.8254 24.7926 24.8625 24.8293
24.8689 24.8357 24.8673 24.834 24.8812 24.8479
24.8862 24.8528 24.9015 24.868 24.8922 24.8588
24.8995 24.866 24.9136 24.88 24.9215 24.8879
24.8802 24.8476 24.8894 24.8568 24.8836 24.8508
24.8889 24.8558 24.8935 24.8606 24.8998 24.8667
24.896 24.8635 24.9005 24.8681 24.9006 24.8678
24.9078 24.8748 24.9056 24.873 24.9136 24.8807
24.9013 24.8679 24.9177 24.8842 24.9133 24.8799
24.9307 24.8972 24.9308 24.8971 24.9392 24.9055
24.9445 24.9108 24.9534 24.9197 24.9223 24.8889
24.9405 24.907 24.9289 24.8956 24.9479 24.9144
24.9549 24.9213 24.9641 24.9304 24.9629 24.9292
24.9724 24.9387 24.9017 24.8694 24.8992 24.8671
24.9072 24.8747 24.9158 24.883 24.905 24.8726
24.9141 24.8814 24.8927 24.8607 24.881 24.8492
24.8986 24.8664 24.908 24.8755 24.8871 24.855
24.8967 24.8644 24.9318 24.8985 24.9513 24.9179
24.9305 24.8973 24.9503 24.9171 24.9667 24.9332
24.9765 24.9429 24.966 24.9326 24.976 24.9424
24.9247 24.8917 24.9448 24.9117 24.9136 24.8808
24.9338 24.9008 24.9607 24.9274 24.9707 24.9373
24.9497 24.9166 24.9598 24.9265 24.8637 24.8321
24.8409 24.8095 24.87 24.838 24.88 24.8478
24.8477 24.8159 24.8583 24.8263 24.8081 24.7767
24.7769 24.7459 24.8159 24.7843 24.8281 24.7962
24.7865 24.7552 24.8011 24.7695 24.897 24.8643
24.9171 24.8843 24.8756 24.8431 24.8956 24.863
24.9331 24.9001 24.9431 24.91 24.9114 24.8786
24.9214 24.8884 24.8458 24.8134 24.8654 24.8329
24.8192 24.7872 24.8379 24.8057 24.8807 24.848
24.8904 24.8576 24.8525 24.8201 24.8618 24.8293
24.7622 24.731 24.741 24.7101 24.7735 24.7419
24.7905 24.7586 24.7576 24.7263 24.7788 24.7472
24.6159 24.5853 24.5924 24.5618 24.6769 24.6462
24.6441 24.6132 24.5826 24.5525 24.5582 24.5282
24.6318 24.6014 24.6034 24.5732 24.7142 24.6831
24.6827 24.6516 24.743 24.7116 24.7129 24.6815
24.6706 24.6399 24.6421 24.6115 24.7012 24.6703
24.6733 24.6424 24.8091 24.7769 24.8266 24.7942
24.7986 24.7668 24.8151 24.783 24.8406 24.808
24.8493 24.8166 24.8277 24.7954 24.8351 24.8026
24.7648 24.7331 24.735 24.7033 24.7805 24.7486
24.7504 24.7185 24.7234 24.6921 24.6955 24.6644
24.7387 24.7072 24.7104 24.6791 24.7905 24.7584
24.7599 24.7278 24.7914 24.7592 24.7611 24.7289
24.7479 24.7164 24.7193 24.6878 24.7493 24.7176
24.7209 24.6895 24.5073 24.4776 24.5511 24.5212
24.4559 24.4264 24.4997 24.4699 24.5892 24.5589
24.6201 24.5895 24.5373 24.5073 24.5674 24.5372
24.4087 24.3796 24.4526 24.4232 24.3562 24.3274
24.4002 24.371 24.4899 24.4602 24.5193 24.4893
24.437 24.4076 24.4656 24.436 24.6415 24.6107
24.6554 24.6245 24.5879 24.5574 24.6007 24.5701
24.6633 24.6323 24.6645 24.6335 24.6075 24.5769
24.608 24.5775 24.5387 24.5086 24.5506 24.5204
24.484 24.4542 24.4949 24.4652 24.5565 24.5263
24.5564 24.5263 24.5 24.4703 24.4993 24.4697
24.7747 24.7423 24.7505 24.7182 24.7545 24.7222
24.7318 24.6998 24.7402 24.7085 24.7142 24.6828
24.7222 24.6907 24.6974 24.6662 24.7298 24.6979
24.7074 24.6756 24.7061 24.6745 24.6837 24.6522
24.6979 24.6667 24.6737 24.6427 24.6742 24.6432
24.6501 24.6195 24.6812 24.6499 24.6479 24.6169
24.6588 24.6276 24.6255 24.5947 24.6093 24.5787
24.5783 24.5481 24.5867 24.5563 24.555 24.525
24.6493 24.6187 24.616 24.5858 24.6253 24.595
24.5921 24.5621 24.5772 24.5474 24.5455 24.5161
24.5535 24.524 24.5226 24.4934 24.5619 24.548
24.5321 24.5186 24.5193 24.4901 24.5384 24.5248
24.5089 24.4955 24.4969 24.4679 24.4691 24.4407
24.4469 24.4187 24.529 24.5155 24.5 24.4867
24.4875 24.459 24.5063 24.4925 24.4776 24.4641
24.464 24.4358 24.4375 24.4098 24.414 24.3866
24.6583 24.6274 24.6423 24.6116 24.6016 24.5711
24.5856 24.5554 24.619 24.5886 24.5958 24.5657
24.5627 24.5328 24.5399 24.5103 24.5496 24.5196
24.5338 24.504 24.4923 24.4628 24.4767 24.4474
24.5112 24.4817 24.4888 24.4597 24.4546 24.4256
24.4328 24.4041 24.5713 24.5415 24.5385 24.5091
24.5006 24.4716 24.4702 24.4417 24.5158 24.4866
24.4836 24.4547 24.4464 24.418 24.4166 24.3886
24.4542 24.4406 24.4261 24.4128 24.4123 24.3848
24.3629 24.3362 24.4009 24.3877 24.3733 24.3604
24.3601 24.3331 24.3118 24.2856 24.4652 24.4364
24.4336 24.4053 24.3973 24.3694 24.3682 24.3406
24.4098 24.3815 24.3792 24.3513 24.3439 24.3165
24.3157 24.2887 24.3528 24.3399 24.3258 24.3132
24.3131 24.2866 24.2661 24.2404 24.3008 24.2884
24.2743 24.2621 24.2624 24.2365 24.217 24.1919
24.4136 24.3863 24.3913 24.3642 24.3641 24.3378
24.3352 24.3207 24.3096 24.2956 24.3413 24.3152
24.3116 24.2969 24.2864 24.2721 24.3819 24.3554
24.3584 24.3323 24.3319 24.3063 24.3022 24.2875
24.2774 24.2632 24.3087 24.2835 24.2796 24.265
24.2552 24.2411 24.309 24.2848 24.2833 24.2597
24.2853 24.2613 24.2604 24.2372 24.2575 24.2362
24.2348 24.2138 24.276 24.2525 24.2509 24.2282
24.2533 24.2302 24.2274 24.2051 24.2254 24.205
24.202 24.1819 24.3082 24.2827 24.259 24.2345
24.2303 24.216 24.2067 24.1928 24.2583 24.2333
24.21 24.1861 24.1819 24.1679 24.1588 24.1453
24.2044 24.1821 24.1789 24.1573 24.1547 24.1352
24.1567 24.1349 24.1321 24.1111 24.1096 24.0906
24.2139 24.1894 24.1667 24.1433 24.1393 24.1258
24.1168 24.1037 24.1665 24.1426 24.1209 24.098
24.0945 24.0815 24.0725 24.0599 24.115 24.0937
24.0914 24.0709 24.0706 24.052 24.0712 24.0505
24.0489 24.0288 24.0301 24.0119 24.2979 24.2694
24.3418 24.313 24.2367 24.2085 24.2803 24.2518
24.3781 24.349 24.4057 24.3765 24.3159 24.2872
24.3427 24.3139 24.176 24.1482 24.2191 24.191
24.1166 24.0892 24.1592 24.1315 24.2541 24.2258
24.2802 24.2518 24.1936 24.1657 24.2191 24.1911
24.4232 24.3939 24.4333 24.404 24.3594 24.3305
24.3688 24.3399 24.4378 24.4085 24.4367 24.4075
24.3729 24.3441 24.3717 24.343 24.2962 24.2677
24.3053 24.2769 24.2347 24.2066 24.2436 24.2156
24.3092 24.2808 24.3081 24.2799 24.2475 24.2196
24.2468 24.2191 24.0473 24.0203 24.0891 24.0618
23.9664 23.9399 24.0073 23.9805 24.1227 24.0953
24.1476 24.1201 24.0401 24.0133 24.0646 24.0376
23.8832 23.8573 23.923 23.8969 23.7982 23.7728
23.8369 23.8114 23.9552 23.9289 23.9793 23.953
23.8684 23.8428 23.8924 23.8667 24.1629 24.1354
24.1718 24.1444 24.0798 24.0529 24.0889 24.0621
24.176 24.1487 24.1759 24.1487 24.0937 24.067
24.0945 24.068 23.9946 23.9684 24.0042 23.9781
23.908 23.8824 23.9182 23.8927 24.0098 23.9838
24.0117 23.9859 23.9248 23.8995 23.9281 23.9029
24.4297 24.4006 24.4144 24.3856 24.3649 24.3364
24.3503 24.322 24.393 24.3646 24.372 24.3438
24.3299 24.3019 24.3098 24.2821 24.3018 24.2738
24.2881 24.2603 24.2411 24.2136 24.2284 24.2011
24.2687 24.2413 24.2497 24.2226 24.2103 24.1833
24.1924 24.1658 24.3499 24.3221 24.3204 24.293
24.2865 24.2596 24.2594 24.2329 24.2887 24.2614
24.2605 24.2337 24.2283 24.2019 24.2024 24.1764
24.2451 24.2332 24.2191 24.2074 24.2084 24.183
24.165 24.1403 24.1888 24.1774 24.1632 24.1522
24.154 24.1291 24.1129 24.0887 24.2297 24.203
24.2031 24.1768 24.1724 24.1466 24.1478 24.1224
24.1736 24.1474 24.1485 24.1227 24.1196 24.0943
24.0964 24.0714 24.1349 24.1243 24.1099 24.0996
24.1022 24.0778 24.0635 24.0399 24.0842 24.0742
24.0597 24.05 24.0536 24.0297 24.0173 23.9942
24.1711 24.1442 24.1598 24.1331 24.0911 24.0648
24.0816 24.0555 24.1433 24.117 24.1269 24.1009
24.0672 24.0415 24.0526 24.0272 24.0099 23.9843
24.0025 23.9771 23.928 23.903 23.9228 23.8982
23.9904 23.9653 23.9777 23.9531 23.9132 23.8889
23.9027 23.8787 24.1097 24.084 24.0865 24.0613
24.0598 24.035 24.0382 24.0138 24.0372 24.0122
24.0164 23.9918 23.9923 23.9682 23.9728 23.949
24.027 24.0177 24.003 23.9941 23.9988 23.9755
23.9654 23.9428 23.9625 23.9543 23.9392 23.9312
23.9373 23.9146 23.9075 23.8855 23.9644 23.9401
23.9461 23.9222 23.9247 23.9012 23.9073 23.8841
23.8915 23.8679 23.8758 23.8526 23.8573 23.8345
23.842 23.8194 23.8982 23.8909 23.8755 23.8685
23.8761 23.854 23.8498 23.8284 23.834 23.8278
23.8119 23.806 23.8152 23.7937 23.7926 23.7717
23.7124 23.6876 23.7499 23.725 23.6263 23.6021
23.6626 23.6384 23.7807 23.7558 23.8046 23.7797
23.6928 23.6686 23.7167 23.6924 23.5412 23.5178
23.5762 23.5528 23.4581 23.4354 23.4917 23.469
23.6058 23.5823 23.6296 23.6062 23.5205 23.4979
23.5443 23.5218 23.8206 23.7958 23.8317 23.8069
23.7332 23.7091 23.7451 23.7211 23.8394 23.8148
23.8441 23.8197 23.7541 23.7303 23.7603 23.7367
23.6467 23.6234 23.6595 23.6364 23.562 23.5396
23.5757 23.5534 23.6698 23.6468 23.6777 23.6549
23.5873 23.5652 23.5968 23.5749 23.3787 23.3569
23.4108 23.389 23.3044 23.2834 23.3347 23.3138
23.4387 23.417 23.4624 23.4407 23.3615 23.3408
23.3849 23.3642 23.2374 23.2174 23.2656 23.2457
23.1791 23.1602 23.2051 23.1863 23.2912 23.2715
23.314 23.2945 23.2291 23.2105 23.2512 23.2328
23.4805 23.459 23.4951 23.4738 23.4034 23.3829
23.4188 23.3984 23.508 23.4868 23.5191 23.4981
23.4328 23.4126 23.4455 23.4255 23.3327 23.3133
23.3487 23.3295 23.2699 23.2516 23.2864 23.2682
23.3638 23.3446 23.3779 23.3588 23.3023 23.2842
23.3175 23.2995 23.8459 23.8218 23.8432 23.8193
23.7642 23.7408 23.7641 23.7409 23.8362 23.8126
23.8279 23.8047 23.7597 23.7369 23.7538 23.7313
23.6836 23.6611 23.6861 23.6638 23.6049 23.5832
23.6101 23.5886 23.6846 23.6626 23.681 23.6593
23.6114 23.5901 23.6101 23.5891 23.8189 23.796
23.8059 23.7835 23.7904 23.7682 23.7772 23.7554
23.7471 23.7249 23.7369 23.7151 23.7242 23.7028
23.7133 23.692 23.7704 23.7652 23.749 23.744
23.7549 23.734 23.7358 23.7155 23.7076 23.7034
23.6868 23.6828 23.6953 23.675 23.6798 23.66
23.6766 23.6552 23.6691 23.6481 23.6594 23.6386
23.6506 23.63 23.608 23.5873 23.6032 23.5829
23.5964 23.5763 23.5896 23.5697 23.6461 23.6429
23.6259 23.6229 23.6369 23.6172 23.6249 23.6056
23.5863 23.584 23.5667 23.5646 23.5801 23.5609
23.5714 23.5526 23.5293 23.5084 23.5371 23.5165
23.4577 23.4378 23.468 23.4483 23.5411 23.5207
23.5421 23.5219 23.4747 23.4551 23.4779 23.4586
23.3918 23.3729 23.4045 23.3857 23.3331 23.3151
23.3479 23.33 23.4136 23.395 23.4189 23.4004
23.3593 23.3415 23.3665 23.3487 23.5422 23.5223
23.5401 23.5205 23.5359 23.5165 23.5312 23.5119
23.4801 23.461 23.4805 23.4616 23.4789 23.4602
23.4761 23.4574 23.5289 23.5275 23.5099 23.5088
23.5255 23.507 23.52 23.5018 23.4747 23.4742
23.4563 23.456 23.474 23.456 23.4714 23.4537
23.423 23.4047 23.4258 23.4076 23.4266 23.4085
23.4255 23.4074 23.3724 23.3548 23.3773 23.3598
23.3803 23.3629 23.3808 23.3634 23.425 23.4253
23.4073 23.4078 23.4268 23.4094 23.4268 23.4097
23.3811 23.3822 23.364 23.3652 23.3852 23.3684
23.3877 23.3711 24.1167 24.0932 24.0729 24.0505
24.0478 24.0354 24.0262 24.0143 24.067 24.044
24.0254 24.0035 24.0016 23.9901 23.9806 23.9694
24.0257 24.0055 24.0049 23.9853 23.9885 23.9707
23.9811 23.9613 23.962 23.9428 23.948 23.9305
24.0202 23.9977 23.9808 23.9595 23.9585 23.9478
23.9379 23.9276 23.9766 23.9546 23.9395 23.9186
23.9187 23.9087 23.8985 23.8889 23.9395 23.9201
23.9221 23.9034 23.9106 23.8935 23.9011 23.8821
23.8855 23.8671 23.8763 23.8594 23.9278 23.9063
23.8936 23.8731 23.8745 23.8655 23.8547 23.8461
23.8736 23.8526 23.8425 23.8226 23.8254 23.8174
23.8061 23.7985 23.8587 23.84 23.8449 23.8269
23.8383 23.8218 23.8116 23.7933 23.8001 23.7824
23.7964 23.7801 23.8196 23.7992 23.7919 23.7724
23.7767 23.7698 23.7578 23.7512 23.7661 23.7461
23.7416 23.7226 23.7284 23.7225 23.7099 23.7043
23.7648 23.747 23.7556 23.7383 23.7547 23.7387
23.7184 23.701 23.7114 23.6944 23.7133 23.6976
23.7131 23.6936 23.6918 23.6732 23.6804 23.6755
23.6624 23.6578 23.6608 23.6417 23.6425 23.6244
23.633 23.6291 23.6154 23.6117 23.6724 23.6553
23.6675 23.6509 23.672 23.6566 23.6268 23.61
23.6239 23.6076 23.6309 23.6157 23.6093 23.5908
23.5941 23.5764 23.5863 23.5833 23.5691 23.5663
23.5592 23.5411 23.5468 23.5296 23.5407 23.5385
23.5238 23.522 23.5817 23.5654 23.5808 23.5649
23.5902 23.5754 23.5378 23.5218 23.5387 23.5231
23.5503 23.5358 23.5109 23.4933 23.5012 23.4844
23.4966 23.4953 23.4802 23.4792 23.4652 23.4482
23.4581 23.4418 23.4549 23.4544 23.439 23.4387
23.4952 23.4797 23.4979 23.4828 23.5117 23.4975
23.455 23.4398 23.4593 23.4445 23.475 23.4612
23.4234 23.4068 23.4184 23.4026 23.4166 23.4167
23.4011 23.4015 23.3866 23.3706 23.3837 23.3684
23.383 23.3838 23.368 23.369 23.4179 23.4032
23.4237 23.4094 23.4413 23.4279 23.3855 23.3712
23.3925 23.3786 23.4115 23.3986 23.1322 23.1146
23.1556 23.1381 23.0981 23.0817 23.1188 23.1026
23.1779 23.1606 23.1991 23.1819 23.1392 23.1231
23.1591 23.1432 23.0805 23.0656 23.0983 23.0836
23.0835 23.0697 23.098 23.0845 23.1165 23.102
23.135 23.1206 23.1137 23.1003 23.1304 23.1171
23.2175 23.2004 23.2342 23.2172 23.1771 23.1613
23.1938 23.178 23.2507 23.2337 23.2669 23.25
23.2107 23.1949 23.2276 23.2118 23.1524 23.138
23.1688 23.1544 23.1466 23.1334 23.1625 23.1492
23.1858 23.1714 23.2032 23.1886 23.1793 23.1659
23.1968 23.1832 23.1105 23.0955 23.1222 23.1075
23.1356 23.1211 23.1507 23.1363 23.1658 23.1515
23.181 23.1666 23.1972 23.1828 23.2144 23.1998
23.2838 23.2669 23.3004 23.2835 23.2456 23.2297
23.2639 23.2479 23.3138 23.2969 23.3227 23.3058
23.2791 23.2631 23.2896 23.2735 23.222 23.2073
23.2416 23.2268 23.2161 23.2024 23.2368 23.2229
23.2586 23.2436 23.2705 23.2555 23.2553 23.2412
23.2688 23.2545 23.3303 23.3135 23.3371 23.3204
23.3422 23.3255 23.3442 23.3275 23.2987 23.2827
23.3075 23.2915 23.3146 23.2986 23.318 23.3019
23.3454 23.3471 23.3289 23.3308 23.3516 23.3354
23.3562 23.3402 23.3199 23.3222 23.304 23.3066
23.3281 23.3126 23.3349 23.3194 23.2812 23.2661
23.2919 23.2768 23.301 23.2858 23.3059 23.2905
23.281 23.2667 23.2936 23.2792 23.3047 23.2901
23.311 23.2963 23.3085 23.3116 23.2934 23.2966
23.3189 23.304 23.3276 23.3128 23.3144 23.3181
23.2999 23.3037 23.3269 23.3125 23.3376 23.3232
23.2337 23.219 23.2547 23.2398 23.274 23.2588
23.2885 23.2731 23.3018 23.2864 23.3157 23.3003
23.3279 23.3123 23.335 23.3191 23.3389 23.343
23.3231 23.3273 23.3525 23.3368 23.3639 23.3481
23.3572 23.3417 23.3559 23.3411 23.3561 23.3573
23.3416 23.343 23.3377 23.3227 23.3376 23.3233
23.3383 23.3397 23.3243 23.326 23.3593 23.3456
23.3673 23.3539 23.3876 23.3752 23.342 23.3287
23.3503 23.3374 23.371 23.3591 23.332 23.3176
23.3324 23.3187 23.333 23.3344 23.3196 23.3211
23.3436 23.3294 23.3441 23.3304 23.3439 23.3446
23.3305 23.3315 23.3365 23.3237 23.3443 23.3319
23.3643 23.3529 23.346 23.3334 23.3518 23.3396
23.3681 23.3569 23.3703 23.3543 23.3698 23.3542
23.3682 23.3679 23.3528 23.3527 23.3682 23.3533
23.3707 23.3561 23.3794 23.3654 
</DataArray>
<DataArray type="Float32" Name="Pressure (Pa)" format="ascii" RangeMin="0" RangeMax="0">
0 0 0 0 0 0
0 0 0 0 0 0
0 0 0 0 0 0
0 0 0 0 0 0
0 0 0 0 0 0
0 0 0 0 0 0
0 0 0 0 0 0
0 0 0 0 0 0
0 0 0 0 0 0
0 0 0 0 0 0
0 0 0 0 0 0
0 0 0 0 0 0
0 0 0 0 0 0
0 0 0 0 0 0
0 0 0 0 0 0
0 0 0 0 0 0
0 0 0 0 0 0
0 0 0 0 0 0
0 0 0 0 0 0
0 0 0 0 0 0
0 0 0 0 0 0
0 0 0 0 0 0
0 0 0 0 0 0
0 0 0 0 0 0
0 0 0 0 0 0
0 0 0 0 0 0
0 0 0 0 0 0
0 0 0 0 0 0
0 0 0 0 0 0
0 0 0 0 0 0
0 0 0 0 0 0
0 0 0 0 0 0
0 0 0 0 0 0
0 0 0 0 0 0
0 0 0 0 0 0
0 0 0 0 0 0
0 0 0 0 0 0
0 0 0 0 0 0
0 0 0 0 0 0
0 0 0 0 0 0
0 0 0 0 0 0
0 0 0 0 0 0
0 0 0 0 0 0
0 0 0 0 0 0
0 0 0 0 0 0
0 0 0 0 0 0
0 0 0 0 0 0
0 0 0 0 0 0
0 0 0 0 0 0
0 0 0 0 0 0
0 0 0 0 0 0
0 0 0 0 0 0
0 0 0 0 0 0
0 0 0 0 0 0
0 0 0 0 0 0
0 0 0 0 0 0
0 0 0 0 0 0
0 0 0 0 0 0
0 0 0 0 0 0
0 0 0 0 0 0
0 0 0 0 0 0
0 0 0 0 0 0
0 0 0 0 0 0
0 0 0 0 0 0
0 0 0 0 0 0
0 0 0 0 0 0
0 0 0 0 0 0
0 0 0 0 0 0
0 0 0 0 0 0
0 0 0 0 0 0
0 0 0 0 0 0
0 0 0 0 0 0
0 0 0 0 0 0
0 0 0 0 0 0
0 0 0 0 0 0
0 0 0 0 0 0
0 0 0 0 0 0
0 0 0 0 0 0
0 0 0 0 0 0
0 0 0 0 0 0
0 0 0 0 0 0
0 0 0 0 0 0
0 0 0 0 0 0
0 0 0 0 0 0
0 0 0 0 0 0
0 0 0 0 0 0
0 0 0 0 0 0
0 0 0 0 0 0
0 0 0 0 0 0
0 0 0 0 0 0
0 0 0 0 0 0
0 0 0 0 0 0
0 0 0 0 0 0
0 0 0 0 0 0
0 0 0 0 0 0
0 0 0 0 0 0
0 0 0 0 0 0
0 0 0 0 0 0
0 0 0 0 0 0
0 0 0 0 0 0
0 0 0 0 0 0
0 0 0 0 0 0
0 0 0 0 0 0
0 0 0 0 0 0
0 0 0 0 0 0
0 0 0 0 0 0
0 0 0 0 0 0
0 0 0 0 0 0
0 0 0 0 0 0
0 0 0 0 0 0
0 0 0 0 0 0
0 0 0 0 0 0
0 0 0 0 0 0
0 0 0 0 0 0
0 0 0 0 0 0
0 0 0 0 0 0
0 0 0 0 0 0
0 0 0 0 0 0
0 0 0 0 0 0
0 0 0 0 0 0
0 0 0 0 0 0
0 0 0 0 0 0
0 0 0 0 0 0
0 0 0 0 0 0
0 0 0 0 0 0
0 0 0 0 0 0
0 0 0 0 0 0
0 0 0 0 0 0
0 0 0 0 0 0
0 0 0 0 0 0
0 0 0 0 0 0
0 0 0 0 0 0
0 0 0 0 0 0
0 0 0 0 0 0
0 0 0 0 0 0
0 0 0 0 0 0
0 0 0 0 0 0
0 0 0 0 0 0
0 0 0 0 0 0
0 0 0 0 0 0
0 0 0 0 0 0
0 0 0 0 0 0
0 0 0 0 0 0
0 0 0 0 0 0
0 0 0 0 0 0
0 0 0 0 0 0
0 0 0 0 0 0
0 0 0 0 0 0
0 0 0 0 0 0
0 0 0 0 0 0
0 0 0 0 0 0
0 0 0 0 0 0
0 0 0 0 0 0
0 0 0 0 0 0
0 0 0 0 0 0
0 0 0 0 0 0
0 0 0 0 0 0
0 0 0 0 0 0
0 0 0 0 0 0
0 0 0 0 0 0
0 0 0 0 0 0
0 0 0 0 0 0
0 0 0 0 0 0
0 0 0 0 0 0
0 0 0 0 0 0
0 0 0 0 0 0
0 0 0 0 0 0
0 0 0 0 0 0
0 0 0 0 0 0
0 0 0 0 0 0
0 0 0 0 0 0
0 0 0 0 0 0
0 0 0 0 0 0
0 0 0 0 0 0
0 0 0 0 0 0
0 0 0 0 0 0
0 0 0 0 0 0
0 0 0 0 0 0
0 0 0 0 0 0
0 0 0 0 0 0
0 0 0 0 0 0
0 0 0 0 0 0
0 0 0 0 0 0
0 0 0 0 0 0
0 0 0 0 0 0
0 0 0 0 0 0
0 0 0 0 0 0
0 0 0 0 0 0
0 0 0 0 0 0
0 0 0 0 0 0
0 0 0 0 0 0
0 0 0 0 0 0
0 0 0 0 0 0
0 0 0 0 0 0
0 0 0 0 0 0
0 0 0 0 0 0
0 0 0 0 0 0
0 0 0 0 0 0
0 0 0 0 0 0
0 0 0 0 0 0
0 0 0 0 0 0
0 0 0 0 0 0
0 0 0 0 0 0
0 0 0 0 0 0
0 0 0 0 0 0
0 0 0 0 0 0
0 0 0 0 0 0
0 0 0 0 0 0
0 0 0 0 0 0
0 0 0 0 0 0
0 0 0 0 0 0
0 0 0 0 0 0
0 0 0 0 0 0
0 0 0 0 0 0
0 0 0 0 0 0
0 0 0 0 0 0
0 0 0 0 0 0
0 0 0 0 0 0
0 0 0 0 0 0
0 0 0 0 0 0
0 0 0 0 0 0
0 0 0 0 0 0
0 0 0 0 0 0
0 0 0 0 0 0
0 0 0 0 0 0
0 0 0 0 0 0
0 0 0 0 0 0
0 0 0 0 0 0
0 0 0 0 0 0
0 0 0 0 0 0
0 0 0 0 0 0
0 0 0 0 0 0
0 0 0 0 0 0
0 0 0 0 0 0
0 0 0 0 0 0
0 0 0 0 0 0
0 0 0 0 0 0
0 0 0 0 0 0
0 0 0 0 0 0
0 0 0 0 0 0
0 0 0 0 0 0
0 0 0 0 0 0
0 0 0 0 0 0
0 0 0 0 0 0
0 0 0 0 0 0
0 0 0 0 0 0
0 0 0 0 0 0
0 0 0 0 0 0
0 0 0 0 0 0
0 0 0 0 0 0
0 0 0 0 0 0
0 0 0 0 0 0
0 0 0 0 0 0
0 0 0 0 0 0
0 0 0 0 0 0
0 0 0 0 0 0
0 0 0 0 0 0
0 0 0 0 0 0
0 0 0 0 0 0
0 0 0 0 0 0
0 0 0 0 0 0
0 0 0 0 0 0
0 0 0 0 0 0
0 0 0 0 0 0
0 0 0 0 0 0
0 0 0 0 0 0
0 0 0 0 0 0
0 0 0 0 0 0
0 0 0 0 0 0
0 0 0 0 0 0
0 0 0 0 0 0
0 0 0 0 0 0
0 0 0 0 0 0
0 0 0 0 0 0
0 0 0 0 0 0
0 0 0 0 0 0
0 0 0 0 0 0
0 0 0 0 0 0
0 0 0 0 0 0
0 0 0 0 0 0
0 0 0 0 0 0
0 0 0 0 0 0
0 0 0 0 0 0
0 0 0 0 0 0
0 0 0 0 0 0
0 0 0 0 0 0
0 0 0 0 0 0
0 0 0 0 0 0
0 0 0 0 0 0
0 0 0 0 0 0
0 0 0 0 0 0
0 0 0 0 0 0
0 0 0 0 0 0
0 0 0 0 0 0
0 0 0 0 0 0
0 0 0 0 0 0
0 0 0 0 0 0
0 0 0 0 0 0
0 0 0 0 0 0
0 0 0 0 0 0
0 0 0 0 0 0
0 0 0 0 0 0
0 0 0 0 0 0
0 0 0 0 0 0
0 0 0 0 0 0
0 0 0 0 0 0
0 0 0 0 0 0
0 0 0 0 0 0
0 0 0 0 0 0
0 0 0 0 0 0
0 0 0 0 0 0
0 0 0 0 0 0
0 0 0 0 0 0
0 0 0 0 0 0
0 0 0 0 0 0
0 0 0 0 0 0
0 0 0 0 0 0
0 0 0 0 0 0
0 0 0 0 0 0
0 0 0 0 0 0
0 0 0 0 0 0
0 0 0 0 0 0
0 0 0 0 0 0
0 0 0 0 0 0
0 0 0 0 0 0
0 0 0 0 0 0
0 0 0 0 0 0
0 0 0 0 0 0
0 0 0 0 0 0
0 0 0 0 0 0
0 0 0 0 0 0
0 0 0 0 0 0
0 0 0 0 0 0
0 0 0 0 0 0
0 0 0 0 0 0
0 0 0 0 0 0
0 0 0 0 0 0
0 0 0 0 0 0
0 0 0 0 0 0
0 0 0 0 0 0
0 0 0 0 0 0
0 0 0 0 0 0
0 0 0 0 0 0
0 0 0 0 0 0
0 0 0 0 0 0
0 0 0 0 0 0
0 0 0 0 0 0
0 0 0 0 0 0
0 0 0 0 0 0
0 0 0 0 0 0
0 0 0 0 0 0
0 0 0 0 0 0
0 0 0 0 0 0
0 0 0 0 0 0
0 0 0 0 0 0
0 0 0 0 0 0
0 0 0 0 0 0
0 0 0 0 0 0
0 0 0 0 0 0
0 0 0 0 0 0
0 0 0 0 0 0
0 0 0 0 0 0
0 0 0 0 0 0
0 0 0 0 0 0
0 0 0 0 0 0
0 0 0 0 0 0
0 0 0 0 0 0
0 0 0 0 0 0
0 0 0 0 0 0
0 0 0 0 0 0
0 0 0 0 0 0
0 0 0 0 0 0
0 0 0 0 0 0
0 0 0 0 0 0
0 0 0 0 0 0
0 0 0 0 0 0
0 0 0 0 0 0
0 0 0 0 0 0
0 0 0 0 0 0
0 0 0 0 0 0
0 0 0 0 0 0
0 0 0 0 0 0
0 0 0 0 0 0
0 0 0 0 0 0
0 0 0 0 0 0
0 0 0 0 0 0
0 0 0 0 0 0
0 0 0 0 0 0
0 0 0 0 0 0
0 0 0 0 0 0
0 0 0 0 0 0
0 0 0 0 0 0
0 0 0 0 0 0
0 0 0 0 0 0
0 0 0 0 0 0
0 0 0 0 0 0
0 0 0 0 0 0
0 0 0 0 0 0
0 0 0 0 0 0
0 0 0 0 0 0
0 0 0 0 0 0
0 0 0 0 0 0
0 0 0 0 0 0
0 0 0 0 0 0
0 0 0 0 0 0
0 0 0 0 0 0
0 0 0 0 0 0
0 0 0 0 0 0
0 0 0 0 0 0
0 0 0 0 0 0
0 0 0 0 0 0
0 0 0 0 0 0
0 0 0 0 0 0
0 0 0 0 0 0
0 0 0 0 0 0
0 0 0 0 0 0
0 0 0 0 0 0
0 0 0 0 0 0
0 0 0 0 0 0
0 0 0 0 0 0
0 0 0 0 0 0
0 0 0 0 0 0
0 0 0 0 0 0
0 0 0 0 0 0
0 0 0 0 0 0
0 0 0 0 0 0
0 0 0 0 0 0
0 0 0 0 0 0
0 0 0 0 0 0
0 0 0 0 0 0
0 0 0 0 0 0
0 0 0 0 0 0
0 0 0 0 0 0
0 0 0 0 0 0
0 0 0 0 0 0
0 0 0 0 0 0
0 0 0 0 0 0
0 0 0 0 0 0
0 0 0 0 0 0
0 0 0 0 0 0
0 0 0 0 0 0
0 0 0 0 0 0
0 0 0 0 0 0
0 0 0 0 0 0
0 0 0 0 0 0
0 0 0 0 0 0
0 0 0 0 0 0
0 0 0 0 0 0
0 0 0 0 0 0
0 0 0 0 0 0
0 0 0 0 0 0
0 0 0 0 0 0
0 0 0 0 0 0
0 0 0 0 0 0
0 0 0 0 0 0
0 0 0 0 0 0
0 0 0 0 0 0
0 0 0 0 0 0
0 0 0 0 0 0
0 0 0 0 0 0
0 0 0 0 0 0
0 0 0 0 0 0
0 0 0 0 0 0
0 0 0 0 0 0
0 0 0 0 0 0
0 0 0 0 0 0
0 0 0 0 0 0
0 0 0 0 0 0
0 0 0 0 0 0
0 0 0 0 0 0
0 0 0 0 0 0
0 0 0 0 0 0
0 0 0 0 0 0
0 0 0 0 0 0
0 0 0 0 0 0
0 0 0 0 0 0
0 0 0 0 0 0
0 0 0 0 0 0
0 0 0 0 0 0
0 0 0 0 0 0
0 0 0 0 0 0
0 0 0 0 0 0
0 0 0 0 0 0
0 0 0 0 0 0
0 0 0 0 0 0
0 0 0 0 0 0
0 0 0 0 0 0
0 0 0 0 0 0
0 0 0 0 0 0
0 0 0 0 0 0
0 0 0 0 
</DataArray>
<DataArray type="Float32" Name="Velocity (m/s)" NumberOfComponents="3" format= "ascii" RangeMin="0" RangeMax="0">
0 0 0 0 0 0 
0 0 0 0 0 0 
0 0 0 0 0 0 
0 0 0 0 0 0 
0 0 0 0 0 0 
0 0 0 0 0 0 
0 0 0 0 0 0 
0 0 0 0 0 0 
0 0 0 0 0 0 
0 0 0 0 0 0 
0 0 0 0 0 0 
0 0 0 0 0 0 
0 0 0 0 0 0 
0 0 0 0 0 0 
0 0 0 0 0 0 
0 0 0 0 0 0 
0 0 0 0 0 0 
0 0 0 0 0 0 
0 0 0 0 0 0 
0 0 0 0 0 0 
0 0 0 0 0 0 
0 0 0 0 0 0 
0 0 0 0 0 0 
0 0 0 0 0 0 