<VTKFile type="UnstructuredGrid" version="1.0" byte_order="LittleEndian" header_type="UInt64">
<UnstructuredGrid>
<Piece NumberOfPoints="4746" NumberOfCells="2958">
<PointData>
</PointData>
<CellData Scalars="Temperature (C)">
<DataArray type="Float32" Name="Temperature (C)" format="ascii" RangeMin="22.0702" RangeMax="26.9711">
22.3135 22.3109 22.2924 22.2824 22.2867 22.2779
22.3181 22.3162 22.3354 22.3385 22.2955 22.2855
22.2907 22.2817 22.3131 22.3031 22.3152 22.3051
22.251 22.2455 22.2554 22.2502 22.2752 22.2767
22.2023 22.1952 22.206 22.1998 22.2257 22.2267
22.364 22.3684 22.3422 22.3325 22.3459 22.3361
22.3878 22.3935 22.3952 22.397 22.4014 22.4033
22.3659 22.3562 22.3711 22.3613 22.373 22.3745
22.3631 22.3646 22.3788 22.3805 22.3689 22.3704
22.3967 22.4031 22.374 22.364 22.38 22.3699
22.3922 22.3986 22.3687 22.3584 22.3747 22.3643
22.3055 22.3087 22.3294 22.3342 22.336 22.3373
22.3415 22.3428 22.2563 22.2591 22.2802 22.2846
22.2866 22.2877 22.2917 22.2929 22.3364 22.342
22.33 22.3357 22.2867 22.292 22.2798 22.2852
22.1634 22.1554 22.1663 22.1596 22.1851 22.1859
22.1336 22.1252 22.136 22.1291 22.1539 22.1547
22.1075 22.0989 22.1095 22.1027 22.1266 22.1274
22.088 22.0797 22.0896 22.0831 22.1057 22.1068
22.2151 22.2178 22.2388 22.2431 22.2453 22.2466
22.2504 22.2518 22.183 22.1856 22.2061 22.2104
22.2127 22.2142 22.2177 22.2193 22.2457 22.251
22.2396 22.245 22.2135 22.2189 22.2084 22.2137
22.1542 22.1569 22.1763 22.1806 22.1829 22.1845
22.188 22.1898 22.1311 22.1339 22.1511 22.1556
22.1567 22.1582 22.1615 22.1631 22.1842 22.1897
22.1805 22.186 22.1583 22.1636 22.1561 22.1614
22.361 22.3671 22.3354 22.3243 22.341 22.3297
22.3135 22.3186 22.2855 22.2732 22.2899 22.2775
22.2641 22.2673 22.2359 22.2229 22.2391 22.2258
22.2336 22.2345 22.2073 22.1955 22.2085 22.1966
22.2939 22.299 22.2397 22.2433 22.2427 22.2474
22.1877 22.1907 22.1857 22.1859 22.1626 22.1629
22.1359 22.1363 22.1164 22.117 22.2409 22.2411
22.2152 22.2039 22.2156 22.2043 22.2954 22.2976
22.2666 22.2536 22.269 22.2558 22.3795 22.3835
22.3464 22.3315 22.3507 22.3357 22.5018 22.5074
22.4588 22.4394 22.4646 22.4451 22.1726 22.173
22.2169 22.2177 22.1276 22.1284 22.1683 22.1696
22.2902 22.2937 22.3858 22.3899 22.2356 22.2397
22.3209 22.3253 22.2049 22.2098 22.1535 22.1571
22.1769 22.1818 22.1308 22.1343 22.1046 22.1052
22.0888 22.0897 22.0887 22.0895 22.0788 22.0798
22.1549 22.16 22.1185 22.1225 22.1384 22.1432
22.1153 22.1189 22.0872 22.0886 22.0856 22.087
22.0979 22.0991 22.1053 22.1063 22.1036 22.1049
22.146 22.1475 22.0987 22.0997 22.1434 22.1444
22.2133 22.217 22.2946 22.2983 22.2096 22.2129
22.2875 22.2908 22.1105 22.1119 22.1563 22.1578
22.1346 22.1358 22.1812 22.1824 22.2201 22.2234
22.2944 22.2979 22.2431 22.2462 22.3143 22.3176
22.0778 22.0702 22.0793 22.0732 22.0942 22.0952
22.079 22.072 22.0808 22.0752 22.0956 22.0968
22.09 22.0831 22.0927 22.0872 22.1089 22.1104
22.1146 22.1082 22.118 22.1127 22.1361 22.1378
22.1167 22.1192 22.1342 22.138 22.1384 22.1392
22.1423 22.1429 22.1174 22.1197 22.1342 22.1375
22.139 22.1402 22.1423 22.1434 22.1387 22.1417
22.1363 22.1389 22.1404 22.143 22.14 22.1423
22.132 22.1346 22.1501 22.1537 22.1558 22.1576
22.1594 22.1611 22.1611 22.164 22.1803 22.184
22.187 22.1893 22.1907 22.1928 22.1583 22.1611
22.1595 22.162 22.1905 22.1932 22.1931 22.1955
22.1568 22.1509 22.1609 22.1556 22.181 22.1832
22.2095 22.204 22.2143 22.2092 22.2362 22.239
22.2722 22.2668 22.2775 22.2726 22.3012 22.3047
22.3451 22.34 22.3509 22.3464 22.3763 22.3806
22.2087 22.2121 22.2297 22.2339 22.2373 22.2402
22.2416 22.2443 22.2661 22.2702 22.2884 22.2932
22.2966 22.2996 22.3014 22.3041 22.2418 22.2451
22.2457 22.2487 22.3013 22.3048 22.3055 22.3086
22.3334 22.3383 22.3573 22.3628 22.3662 22.3696
22.3718 22.3749 22.4106 22.4162 22.4356 22.4418
22.4447 22.448 22.4509 22.4539 22.3717 22.3761
22.3767 22.3807 22.4499 22.4546 22.4546 22.4587
22.1283 22.1308 22.122 22.1244 22.1393 22.1414
22.1432 22.1453 22.1221 22.124 22.1383 22.1401
22.1533 22.155 22.1755 22.1773 22.1642 22.1666
22.1747 22.1772 22.202 22.2044 22.2175 22.22
22.1914 22.1937 22.2177 22.2201 22.2389 22.2413
22.2683 22.2707 22.1712 22.1731 22.218 22.22
22.2112 22.213 22.258 22.26 22.2774 22.2809
22.3455 22.3492 22.3156 22.3191 22.3811 22.3848
22.2554 22.258 22.3019 22.3047 22.3073 22.31
22.3533 22.3562 22.3575 22.3615 22.4205 22.4248
22.4071 22.4112 22.4677 22.4719 22.258 22.261
22.2771 22.2803 22.3197 22.3228 22.341 22.3443
22.3021 22.3054 22.3335 22.3369 22.3679 22.3713
22.4003 22.4038 22.3925 22.3966 22.4153 22.4195
22.4708 22.4751 22.4941 22.4985 22.4435 22.448
22.4762 22.4808 22.5226 22.5272 22.555 22.5597
22.3733 22.377 22.4183 22.4222 22.44 22.4438
22.484 22.4879 22.4697 22.4746 22.5275 22.5326
22.5334 22.5384 22.5888 22.5939 22.5155 22.5205
22.558 22.5632 22.5933 22.5984 22.6343 22.6396
22.6052 22.6112 22.658 22.6642 22.6795 22.6856
22.7299 22.7362 22.43 22.4253 22.4364 22.4323
22.4633 22.4683 22.5294 22.5251 22.5362 22.5327
22.5646 22.5704 22.646 22.6421 22.6532 22.6503
22.683 22.6897 22.7829 22.7796 22.7907 22.7883
22.8219 22.8295 22.4996 22.506 22.5258 22.5328
22.5354 22.539 22.5424 22.5457 22.6027 22.61
22.6297 22.6376 22.6392 22.6424 22.647 22.6498
22.5411 22.5468 22.5462 22.5514 22.6441 22.6501
22.6482 22.6536 22.7229 22.7311 22.7508 22.7595
22.7605 22.7639 22.7692 22.7723 22.8635 22.8727
22.8922 22.9018 22.9013 22.9042 22.9109 22.9133
22.7658 22.773 22.7699 22.7766 22.9053 22.9129
22.9078 22.9147 22.9432 22.9401 22.9515 22.9496
22.9844 22.9929 23.129 23.1262 23.1379 23.1363
23.1728 23.1821 23.3397 23.3369 23.3493 23.3479
23.3865 23.3966 23.5711 23.5687 23.5816 23.5806
23.6216 23.6329 23.028 23.0381 23.0576 23.0681
23.0669 23.0698 23.0774 23.08 23.2187 23.2297
23.2491 23.2605 23.2577 23.2599 23.2691 23.2708
23.071 23.08 23.0733 23.0817 23.2602 23.2694
23.2604 23.2687 23.435 23.447 23.4667 23.4791
23.4756 23.4779 23.4879 23.4899 23.6735 23.6867
23.7065 23.7202 23.7149 23.7166 23.7285 23.7296
23.4784 23.489 23.4784 23.4884 23.7162 23.7272
23.7141 23.7242 22.5628 22.5682 22.586 22.5915
22.6639 22.6695 22.6863 22.692 22.6143 22.6201
22.6458 22.6517 22.7135 22.7194 22.7436 22.7497
22.7847 22.7916 22.8057 22.8127 22.9207 22.9277
22.9396 22.9468 22.8312 22.8385 22.8594 22.8668
22.963 22.9704 22.9889 22.9964 22.6828 22.6891
22.7219 22.7284 22.7788 22.7853 22.8158 22.8224
22.7647 22.7719 22.8125 22.8198 22.8563 22.8636
22.9015 22.9089 22.8923 22.9001 22.9269 22.9348
23.0192 23.0271 23.0512 23.0591 22.9646 22.9731
23.007 23.0156 23.0862 23.0948 23.1257 23.1344
23.0843 23.0928 23.1009 23.1095 23.2687 23.2771
23.2824 23.2909 23.1216 23.1304 23.1448 23.1536
23.3002 23.3089 23.3206 23.3292 23.4842 23.4943
23.4952 23.5053 23.7177 23.7278 23.7265 23.7366
23.5098 23.52 23.527 23.5373 23.7387 23.7489
23.7535 23.7637 23.1722 23.1813 23.2013 23.2105
23.3448 23.3538 23.3709 23.3799 23.2333 23.2429
23.2697 23.2794 23.3999 23.4094 23.4332 23.4427
23.548 23.5585 23.5711 23.5816 23.7719 23.7823
23.7924 23.8029 23.5969 23.6078 23.627 23.638
23.8158 23.8267 23.8433 23.8542 23.8158 23.8139
23.8273 23.8271 23.8708 23.8838 24.0596 24.0584
24.0726 24.0731 24.1208 24.1358 24.2771 24.2762
24.2915 24.2931 24.3459 24.3638 24.3829 24.3865
24.3984 24.4046 24.4594 24.4825 23.9272 23.942
23.9632 23.9784 23.9733 23.9759 23.9884 23.9906
24.1832 24.2001 24.224 24.2411 24.2366 24.2401
24.2535 24.2563 23.9763 23.9895 23.976 23.9884
24.241 24.2546 24.2422 24.2547 24.4177 24.4368
24.4679 24.4869 24.4889 24.4977 24.508 24.5167
24.5516 24.5735 24.6111 24.6328 24.6364 24.6476
24.658 24.669 24.504 24.5226 24.5171 24.5356
24.6562 24.6775 24.6755 24.6967 23.9798 23.9921
23.9878 24.0002 24.2487 24.2611 24.2579 24.2703
23.9985 24.0109 24.0117 24.0241 24.2688 24.2812
24.2817 24.2941 24.5316 24.55 24.5439 24.5622
24.6953 24.7163 24.7104 24.7314 24.5566 24.575
24.5703 24.5886 24.7257 24.7466 24.741 24.7619
24.0282 24.0408 24.0469 24.0595 24.2976 24.3102
24.3155 24.3282 24.0683 24.0812 24.0937 24.1067
24.3361 24.3491 24.3607 24.3736 24.5871 24.6056
24.6055 24.624 24.7597 24.7807 24.7792 24.8002
24.6264 24.6452 24.6513 24.6702 24.8013 24.8225
24.827 24.8483 23.4335 23.4458 23.4396 23.4542
23.4793 23.4915 23.5868 23.6043 23.3865 23.3983
23.392 23.4058 23.4304 23.4413 23.3174 23.3287
23.3221 23.3352 23.3599 23.3696 23.5336 23.5498
23.4616 23.4765 23.7546 23.7772 23.8936 23.9163
23.6838 23.7008 23.611 23.6279 23.8177 23.8347
23.7442 23.761 23.2482 23.2596 23.2518 23.2648
23.2909 23.2993 23.1921 23.2035 23.1943 23.2075
23.2351 23.2423 23.3934 23.4073 23.3389 23.3518
23.1529 23.164 23.1548 23.1673 23.1949 23.2012
23.1369 23.1472 23.1387 23.1503 23.1765 23.1822
23.2982 23.3102 23.2774 23.2885 23.545 23.5609
23.4947 23.5105 23.6796 23.6955 23.6313 23.6471
23.4558 23.4706 23.4369 23.4516 23.5939 23.6088
23.5758 23.5906 24.0155 24.0379 24.1331 24.1555
23.9402 23.9572 23.8672 23.8842 24.0582 24.0753
23.9859 24.0028 24.2497 24.2733 24.3467 24.3704
24.1745 24.1926 24.1025 24.1205 24.2715 24.2897
24.2 24.218 23.8044 23.8206 23.7577 23.7739
23.9241 23.9403 23.8785 23.8946 23.722 23.7374
23.7046 23.7199 23.8437 23.859 23.8266 23.8419
24.0414 24.0587 23.9964 24.0136 24.1395 24.1567
24.095 24.1122 23.9621 23.9785 23.9453 23.9617
24.061 24.0775 24.0445 24.0609 24.4292 24.4527
24.5056 24.5291 24.3551 24.3732 24.2841 24.3021
24.4315 24.4496 24.3607 24.3787 24.5813 24.6062
24.6423 24.6674 24.5063 24.5256 24.4353 24.4544
24.5668 24.5861 24.4959 24.5151 24.2243 24.2416
24.1803 24.1976 24.3011 24.3185 24.2574 24.2746
24.1469 24.1634 24.1305 24.1471 24.2241 24.2407
24.2079 24.2244 24.3757 24.3941 24.332 24.3504
24.4368 24.4552 24.3936 24.412 24.2988 24.3164
24.2826 24.3001 24.3607 24.3783 24.3447 24.3623
24.6908 24.7159 24.7296 24.7547 24.6165 24.636
24.5466 24.566 24.6558 24.6754 24.587 24.6063
24.7582 24.7839 24.77 24.7959 24.6851 24.7052
24.6174 24.6374 24.6971 24.7172 24.6309 24.6509
24.4888 24.5076 24.4465 24.4653 24.5304 24.5492
24.4892 24.508 24.4146 24.4327 24.399 24.4171
24.4582 24.4763 24.4431 24.4611 24.5625 24.5819
24.5227 24.5421 24.578 24.5975 24.54 24.5595
24.4929 24.5117 24.4784 24.4972 24.5117 24.5306
24.498 24.5168 24.7614 24.7885 24.7125 24.7398
24.6894 24.7106 24.6259 24.647 24.6425 24.6639
24.5838 24.605 24.6262 24.6531 24.5243 24.5507
24.5614 24.5826 24.51 24.5311 24.4665 24.4874
24.4236 24.4444 24.5763 24.597 24.5413 24.5619
24.5398 24.5605 24.5095 24.5302 24.5153 24.5354
24.5029 24.5229 24.4873 24.5074 24.4768 24.4969
24.4743 24.4951 24.4505 24.4713 24.3967 24.4173
24.3799 24.4005 24.4338 24.4543 24.4261 24.4465
24.369 24.3894 24.3642 24.3846 24.3834 24.4043
24.2289 24.2496 24.0724 24.0922 23.9156 23.9351
24.3365 24.3534 24.1926 24.2093 24.3052 24.3221
24.1748 24.1915 24.0487 24.0655 23.9056 23.9221
24.0459 24.0626 23.919 23.9355 23.7797 23.796
23.646 23.6599 23.7845 23.7986 23.8133 23.8274
23.6679 23.6814 23.7128 23.7266 24.2906 24.3082
24.1733 24.1908 24.2826 24.3002 24.1755 24.193
24.0582 24.0757 23.9461 23.9635 24.0715 24.089
23.9712 23.9887 24.2799 24.298 24.1812 24.1993
24.2791 24.2972 24.1849 24.203 24.086 24.1041
23.9954 24.0135 24.0948 24.1129 24.0099 24.028
23.8541 23.8697 23.8898 23.9056 23.7667 23.7821
23.8131 23.8287 23.9233 23.9402 23.9433 23.9603
23.8558 23.8727 23.8822 23.8992 23.3711 23.3805
22.6841 22.6909 22.6174 22.5889 22.6246 22.5961
22.9626 22.9706 22.8213 22.7713 22.8295 22.7794
23.4339 23.4455 23.5155 23.529 23.1201 23.1293
22.9751 22.9222 22.9847 22.9316 23.2444 23.255
23.1068 23.0549 23.1172 23.065 22.5144 22.5207
22.6573 22.6638 22.4335 22.4393 22.5519 22.5576
22.7995 22.8069 22.931 22.9382 22.6784 22.6853
22.802 22.8089 23.5955 23.611 23.6649 23.6817
23.3521 23.3642 23.2234 23.1739 23.235 23.1851
23.4485 23.4616 23.3287 23.2817 23.3413 23.2938
23.7283 23.7467 23.7722 23.7914 23.5447 23.5591
23.4372 23.3942 23.4512 23.4077 23.6377 23.6531
23.5478 23.5104 23.5629 23.5249 23.0533 23.0615
23.1649 23.1732 22.922 22.9299 23.0341 23.0421
23.2853 23.2949 23.412 23.4217 23.1583 23.1675
23.2913 23.3006 22.3978 22.4033 22.5038 22.5093
22.3846 22.3899 22.4831 22.4885 22.6196 22.6263
22.7351 22.7418 22.5914 22.598 22.7002 22.7068
22.3866 22.3919 22.4789 22.4844 22.402 22.4072
22.4891 22.4944 22.5807 22.5875 22.6829 22.6897
22.585 22.5917 22.6808 22.6876 22.8489 22.8565
22.9574 22.965 22.8085 22.816 22.9127 22.9202
23.0786 23.0872 23.2109 23.2195 23.03 23.0385
23.1595 23.168 22.7852 22.7928 22.884 22.8917
22.7774 22.785 22.8709 22.8785 22.9958 23.0041
23.1205 23.1289 22.9769 22.9852 23.0962 23.1046
23.7392 23.7563 23.6779 23.649 23.6948 23.6654
23.9054 23.9237 23.8532 23.8276 23.8713 23.845
24.0944 24.1141 24.0467 24.0231 24.0661 24.0419
24.2567 24.2771 24.2117 24.1892 24.2318 24.2087
23.5667 23.5784 23.752 23.7638 23.455 23.4664
23.6471 23.6586 23.9529 23.9666 24.1221 24.136
23.8544 23.8678 24.0289 24.0425 24.4195 24.4421
24.605 24.6275 24.3774 24.3564 24.3997 24.3781
24.567 24.5479 24.5893 24.5697 24.7935 24.8162
24.9295 24.9523 24.7615 24.7452 24.784 24.7671
24.904 24.8911 24.9268 24.9134 25.0026 25.0681
25.0265 25.0921 25.2068 25.2308 24.981 25.0498
24.9701 25.0407 25.0048 25.0738 24.9938 25.0646
25.1952 25.1894 25.2193 25.2134 25.4094 25.4346
25.4053 25.4031 25.4306 25.4283 24.2935 24.3103
24.4906 24.5074 24.6955 24.7123 24.8517 24.8698
24.2067 24.2232 24.4128 24.4294 24.6295 24.6461
24.7968 24.8147 24.9377 25.0137 24.9603 25.0372
25.1722 25.196 25.3962 25.4216 24.8892 24.9709
24.9115 24.9942 25.1416 25.1652 25.3826 25.408
23.3748 23.3852 23.5686 23.579 23.3211 23.3313
23.514 23.5244 23.7787 23.791 23.957 23.9697
23.725 23.7372 23.9055 23.918 23.2772 23.287
23.4673 23.4772 23.2468 23.2566 23.4324 23.4423
23.677 23.6886 23.8585 23.8704 23.6397 23.6512
23.8209 23.8327 24.14 24.1558 24.353 24.3689
24.5783 24.5943 24.7533 24.7706 24.0914 24.1072
24.309 24.3249 24.5403 24.5562 24.7203 24.7375
24.8501 24.9359 24.8722 24.959 25.1155 25.1389
25.3704 25.3959 24.8199 24.9085 24.8418 24.9314
25.0943 25.1175 25.3599 25.3854 24.0466 24.0618
24.2678 24.2832 24.5039 24.5193 24.6884 24.7051
24.0096 24.0248 24.233 24.2483 24.4726 24.4879
24.6603 24.6769 24.7907 24.8818 24.8122 24.9043
25.0732 25.0961 25.349 25.3744 24.7644 24.8574
24.7857 24.8797 25.0534 25.0761 25.3383 25.3635
25.5903 25.617 25.5918 25.5923 25.6186 25.6191
25.7195 25.7471 25.7807 25.8113 25.8082 25.8388
25.7244 25.7266 25.7521 25.7542 25.7872 25.8186
25.79 25.8217 25.8148 25.8461 25.8176 25.8493
25.8355 25.8631 25.8921 25.9197 25.8433 25.8468
25.871 25.8745 25.9013 25.9054 25.929 25.9331
25.9346 25.9619 25.9455 25.9503 25.9732 25.978
25.5933 25.6207 25.7324 25.7606 25.7978 25.8305
25.8261 25.8587 25.5943 25.622 25.7429 25.7716
25.8126 25.8474 25.8413 25.876 25.8563 25.8846
25.9167 25.9451 25.9629 25.9911 25.8748 25.9036
25.9391 25.9679 25.9884 26.017 25.5949 25.6229
25.752 25.7811 25.8257 25.8624 25.8547 25.8914
25.5948 25.623 25.759 25.7884 25.836 25.8744
25.8653 25.9036 25.8914 25.9206 25.9594 25.9885
26.0115 26.0405 25.9047 25.9341 25.9757 26.0052
26.0303 26.0596 25.594 25.6223 25.7653 25.7949
25.8455 25.8856 25.875 25.9151 25.5927 25.6212
25.7707 25.8005 25.8541 25.8958 25.8838 25.9254
25.9172 25.9469 25.9914 26.0211 26.0485 26.078
25.9287 25.9586 26.006 26.0358 26.0654 26.095
22.4291 22.4347 22.5116 22.5173 22.4613 22.4668
22.54 22.5457 22.6024 22.6096 22.6924 22.6996
22.6266 22.6338 22.7117 22.719 22.4975 22.5035
22.573 22.5791 22.5414 22.5475 22.6136 22.6198
22.6562 22.6638 22.7373 22.7451 22.6933 22.701
22.7705 22.7783 22.7834 22.7913 22.8717 22.8798
22.7976 22.8056 22.8813 22.8893 22.9719 22.9805
23.0857 23.0943 22.9763 22.9849 23.0849 23.0935
22.8192 22.8278 22.8987 22.9073 22.8484 22.857
22.9236 22.9323 22.989 22.9981 23.0926 23.1017
23.0092 23.0183 23.1075 23.1166 22.5977 22.6044
22.6666 22.6734 22.656 22.6627 22.7219 22.7288
22.7428 22.7511 22.8164 22.8248 22.7951 22.8035
22.8655 22.874 22.722 22.7295 22.7851 22.7928
22.791 22.7987 22.8515 22.8593 22.8554 22.8645
22.9229 22.9321 22.9191 22.9283 22.984 22.9934
22.8905 22.8998 22.9616 22.971 22.9363 22.9457
23.0038 23.0133 23.0422 23.0521 23.1344 23.1443
23.0801 23.09 23.1671 23.1771 22.9908 23.0011
23.0553 23.0656 23.0495 23.0597 23.1112 23.1216
23.1279 23.1387 23.2102 23.2211 23.1805 23.1914
23.2589 23.2697 23.2293 23.239 23.409 23.4187
23.2228 23.2324 23.3967 23.4065 23.6119 23.623
23.7914 23.8028 23.5951 23.6062 23.7723 23.7837
23.2245 23.2344 23.3927 23.4026 23.2335 23.2433
23.3953 23.4052 23.5857 23.5967 23.7598 23.771
23.5824 23.5933 23.7526 23.7638 23.9796 23.9943
24.2038 24.2187 24.4455 24.4604 24.6357 24.6519
23.9589 23.9736 24.1827 24.1976 24.4253 24.4401
24.6168 24.6329 24.7415 24.836 24.7624 24.858
25.0358 25.0581 25.3283 25.3534 24.7234 24.8189
24.7441 24.8407 25.0212 25.0433 25.3197 25.3446
23.944 23.9583 24.1665 24.181 24.409 24.4234
24.6013 24.6171 23.9336 23.9479 24.1539 24.1683
24.3953 24.4098 24.5875 24.6032 24.7085 24.8047
24.729 24.8262 25.0089 25.0308 25.3121 25.3369
24.6949 24.7915 24.7151 24.8127 24.997 25.0186
25.3044 25.329 23.2531 23.2635 23.4077 23.4181
23.2792 23.2896 23.4265 23.437 23.587 23.5982
23.7519 23.7632 23.5986 23.6097 23.7581 23.7694
23.3161 23.3272 23.4562 23.4674 23.3595 23.3707
23.493 23.5042 23.6204 23.6319 23.7737 23.7854
23.65 23.6617 23.7976 23.8094 23.9279 23.942
24.1444 24.1586 24.3837 24.3978 24.5752 24.5907
23.9293 23.9433 24.1415 24.1556 24.3776 24.3917
24.5676 24.583 24.6824 24.7791 24.7024 24.8001
24.9852 25.0065 25.296 25.3204 24.6741 24.7704
24.6938 24.7911 24.976 24.997 25.2886 25.3128
23.9387 23.9527 24.1457 24.1597 24.3779 24.392
24.5659 24.5811 23.9571 23.9711 24.1588 24.1728
24.3865 24.4005 24.5718 24.5869 24.6714 24.767
24.6909 24.7874 24.9717 24.9924 25.285 25.3089
24.676 24.7706 24.6953 24.7907 24.9735 24.994
25.2864 25.3101 22.8704 22.879 22.9281 22.9368
22.9565 22.9652 23.0115 23.0203 22.993 23.0031
23.0555 23.0656 23.0738 23.0839 23.1339 23.1441
23.0586 23.0683 23.1108 23.1206 23.1743 23.184
23.2237 23.2335 23.1703 23.1813 23.228 23.2391
23.2805 23.2914 23.3359 23.3469 23.1186 23.1297
23.1779 23.1891 23.1948 23.206 23.252 23.2633
23.2445 23.2562 23.3193 23.331 23.3161 23.3278
23.3877 23.3995 23.2868 23.2988 23.342 23.3541
23.3926 23.4045 23.4458 23.4578 23.4038 23.4164
23.4726 23.4852 23.5054 23.518 23.5716 23.5841
23.3148 23.3254 23.3611 23.3718 23.4748 23.4853
23.518 23.5285 23.4147 23.4265 23.4675 23.4793
23.5685 23.5801 23.6185 23.6302 23.6651 23.6768
23.705 23.7168 23.8784 23.8901 23.9156 23.9274
23.7521 23.7648 23.7993 23.8121 23.9598 23.9725
24.0045 24.0172 23.5219 23.5345 23.573 23.5857
23.6705 23.683 23.7194 23.732 23.6304 23.6437
23.6939 23.7072 23.7745 23.7877 23.8354 23.8486
23.8486 23.8622 23.8953 23.9089 24.0512 24.0647
24.0957 24.1092 23.948 23.9622 24.0062 24.0204
24.1459 24.16 24.2014 24.2155 23.4151 23.4271
23.5423 23.5543 23.4792 23.4913 23.6008 23.6128
23.692 23.7043 23.8333 23.8457 23.744 23.7562
23.8796 23.892 23.5603 23.5732 23.6765 23.6894
23.6557 23.6685 23.7669 23.7796 23.8131 23.8262
23.9428 23.9559 23.8975 23.9104 24.0215 24.0345
23.9863 24.0004 24.1819 24.196 24.4046 24.4186
24.5866 24.6018 24.0269 24.0409 24.2165 24.2306
24.4338 24.4478 24.6122 24.6273 24.6891 24.7824
24.7083 24.8024 24.9829 25.0032 25.2944 25.3178
24.7129 24.8047 24.7319 24.8245 25.0023 25.0224
25.3111 25.3342 24.0836 24.0979 24.2667 24.281
24.4779 24.4921 24.652 24.6673 24.1565 24.1707
24.3331 24.3473 24.5379 24.552 24.7074 24.7226
24.7504 24.8402 24.7693 24.8599 25.034 25.0539
25.3388 25.3617 24.8034 24.8911 24.8222 24.9107
25.0805 25.1003 25.3797 25.4023 23.7747 23.7883
23.8808 23.8944 23.9127 23.9262 24.0139 24.0274
24.0053 24.019 24.1234 24.1372 24.1325 24.1461
24.245 24.2587 24.0802 24.0947 24.1766 24.1911
24.2719 24.2863 24.3633 24.3778 24.2893 24.304
24.3958 24.4106 24.47 24.4846 24.5707 24.5853
24.2519 24.2665 24.4212 24.4358 24.6186 24.6332
24.7826 24.7981 24.3675 24.382 24.5296 24.5441
24.7194 24.7339 24.8777 24.8932 24.8755 24.9604
24.8943 24.98 25.1443 25.1641 25.4362 25.4586
24.9676 25.0498 24.9865 25.0694 25.2277 25.2476
25.5107 25.533 24.5117 24.527 24.6658 24.6811
24.8469 24.8622 24.9982 25.0144 24.6801 24.6953
24.8259 24.8411 24.9977 25.0129 25.1421 25.1582
25.0841 25.1627 25.1033 25.1826 25.3332 25.3533
25.6053 25.6276 25.2242 25.2993 25.2436 25.3194
25.4617 25.4821 25.721 25.7433 25.591 25.6196
25.775 25.8049 25.8612 25.9043 25.891 25.9341
25.5892 25.6178 25.7781 25.8081 25.8667 25.9109
25.8966 25.9408 25.9384 25.9684 26.0184 26.0484
26.08 26.1098 25.946 25.9761 26.0283 26.0584
26.0917 26.1216 25.5872 25.6159 25.7801 25.8102
25.8707 25.9159 25.9006 25.9459 25.5849 25.6136
25.7818 25.8119 25.8742 25.9204 25.9042 25.9504
25.9518 25.982 26.036 26.0662 26.101 26.131
25.9571 25.9873 26.0434 26.0736 26.1099 26.1399
25.5813 25.61 25.7819 25.812 25.8761 25.9232
25.9061 25.9533 25.5776 25.6062 25.7812 25.8113
25.8768 25.9247 25.9069 25.9548 25.9607 25.9909
26.0487 26.079 26.1165 26.1465 25.9627 25.993
26.052 26.0823 26.1207 26.1507 25.5766 25.6052
25.7825 25.8126 25.8793 25.9278 25.9094 25.9579
25.5796 25.6081 25.7873 25.8173 25.885 25.934
25.915 25.964 25.9663 25.9966 26.0567 26.087
26.1261 26.1561 25.9729 26.0031 26.0642 26.0945
26.1344 26.1644 25.5883 25.6166 25.7972 25.8272
25.8957 25.9451 25.9257 25.975 25.6046 25.6327
25.8144 25.8443 25.9134 25.9631 25.9432 25.9929
25.9843 26.0145 26.0765 26.1067 26.1474 26.1773
26.0025 26.0326 26.0953 26.1254 26.1666 26.1964
25.6307 25.6586 25.8406 25.8704 25.9398 25.9896
25.9696 26.0194 25.6685 25.6961 25.8778 25.9075
25.9769 26.0267 26.0066 26.0564 26.0292 26.0592
26.1222 26.1523 26.1932 26.2231 26.0662 26.0963
26.1592 26.1894 26.2299 26.2599 25.7204 25.7477
25.9284 25.9581 26.0271 26.0768 26.0569 26.1065
25.7887 25.8158 25.9947 26.0244 26.0929 26.1423
26.1226 26.172 26.1163 26.1464 26.2091 26.2394
26.2795 26.3095 26.1816 26.2118 26.2741 26.3045
26.3442 26.3744 25.8751 25.902 26.0784 26.1081
26.1756 26.2246 26.2053 26.2544 25.9805 26.007
26.1797 26.2094 26.2756 26.3241 26.3054 26.354
26.2638 26.2941 26.3558 26.3864 26.4256 26.456
26.3629 26.3934 26.4544 26.4852 26.5241 26.5547
24.1263 24.1398 24.1612 24.1748 24.392 24.4055
24.4257 24.4393 24.2026 24.217 24.2448 24.2592
24.4654 24.4797 24.506 24.5204 24.6823 24.7017
24.7162 24.7359 24.8586 24.8803 24.8928 24.9146
24.7548 24.775 24.795 24.8156 24.9311 24.9534
24.9708 24.9932 24.2889 24.304 24.3311 24.3462
24.5481 24.5631 24.5884 24.6035 24.3788 24.3943
24.4314 24.447 24.6337 24.6492 24.6837 24.6993
24.8351 24.8561 24.874 24.8953 25.0096 25.0324
25.0474 25.0703 24.9168 24.9383 24.9646 24.9863
25.0886 25.1117 25.1348 25.1579 24.4982 24.5142
24.5847 24.6006 24.7469 24.7628 24.8285 24.8443
24.6852 24.7013 24.7796 24.7957 24.9228 24.9388
25.0109 25.027 25.024 25.0459 25.101 25.1229
25.1918 25.215 25.266 25.2891 25.1891 25.2111
25.2712 25.2932 25.35 25.3731 25.4282 25.4512
24.882 24.8985 25.0184 25.0349 25.1792 25.1957
25.3141 25.3314 25.1062 25.1227 25.2327 25.2492
25.3813 25.3978 25.5062 25.5235 25.3908 25.461
25.4109 25.4817 25.6132 25.6341 25.857 25.8795
25.5774 25.6424 25.5981 25.6638 25.7832 25.8047
26.0095 26.0323 25.3595 25.3819 25.4758 25.4981
25.6099 25.632 25.7185 25.7407 25.5124 25.5356
25.624 25.647 25.7522 25.7749 25.8545 25.8771
25.7796 25.8364 25.8021 25.8589 25.9617 25.9841
26.1698 26.1931 25.912 25.9661 25.9349 25.9889
26.0861 26.1087 26.2863 26.3093 26.1036 26.13
26.297 26.3268 26.3909 26.4387 26.4208 26.4687
26.2411 26.2673 26.4264 26.4561 26.5173 26.5638
26.5471 26.5939 26.4771 26.5079 26.5677 26.5988
26.6372 26.6684 26.6014 26.6325 26.6902 26.7219
26.7591 26.791 26.3857 26.4119 26.5602 26.5896
26.6463 26.6905 26.6759 26.7205 26.4937 26.5192
26.6597 26.6877 26.7406 26.781 26.7688 26.8097
26.7263 26.7579 26.8104 26.8428 26.8757 26.9088
26.8119 26.8424 26.8836 26.9162 26.9376 26.9711
</DataArray>
<DataArray type="Float32" Name="Pressure (Pa)" format="ascii" RangeMin="0" RangeMax="0">
0 0 0 0 0 0
0 0 0 0 0 0
0 0 0 0 0 0
0 0 0 0 0 0
0 0 0 0 0 0
0 0 0 0 0 0
0 0 0 0 0 0
0 0 0 0 0 0
0 0 0 0 0 0
0 0 0 0 0 0
0 0 0 0 0 0
0 0 0 0 0 0
0 0 0 0 0 0
0 0 0 0 0 0
0 0 0 0 0 0
0 0 0 0 0 0
0 0 0 0 0 0
0 0 0 0 0 0
0 0 0 0 0 0
0 0 0 0 0 0
0 0 0 0 0 0
0 0 0 0 0 0
0 0 0 0 0 0
0 0 0 0 0 0
0 0 0 0 0 0
0 0 0 0 0 0
0 0 0 0 0 0
0 0 0 0 0 0
0 0 0 0 0 0
0 0 0 0 0 0
0 0 0 0 0 0
0 0 0 0 0 0
0 0 0 0 0 0
0 0 0 0 0 0
0 0 0 0 0 0
0 0 0 0 0 0
0 0 0 0 0 0
0 0 0 0 0 0
0 0 0 0 0 0
0 0 0 0 0 0
0 0 0 0 0 0
0 0 0 0 0 0
0 0 0 0 0 0
0 0 0 0 0 0
0 0 0 0 0 0
0 0 0 0 0 0
0 0 0 0 0 0
0 0 0 0 0 0
0 0 0 0 0 0
0 0 0 0 0 0
0 0 0 0 0 0
0 0 0 0 0 0
0 0 0 0 0 0
0 0 0 0 0 0
0 0 0 0 0 0
0 0 0 0 0 0
0 0 0 0 0 0
0 0 0 0 0 0
0 0 0 0 0 0
0 0 0 0 0 0
0 0 0 0 0 0
0 0 0 0 0 0
0 0 0 0 0 0
0 0 0 0 0 0
0 0 0 0 0 0
0 0 0 0 0 0
0 0 0 0 0 0
0 0 0 0 0 0
0 0 0 0 0 0
0 0 0 0 0 0
0 0 0 0 0 0
0 0 0 0 0 0
0 0 0 0 0 0
0 0 0 0 0 0
0 0 0 0 0 0
0 0 0 0 0 0
0 0 0 0 0 0
0 0 0 0 0 0
0 0 0 0 0 0
0 0 0 0 0 0
0 0 0 0 0 0
0 0 0 0 0 0
0 0 0 0 0 0
0 0 0 0 0 0
0 0 0 0 0 0
0 0 0 0 0 0
0 0 0 0 0 0
0 0 0 0 0 0
0 0 0 0 0 0
0 0 0 0 0 0
0 0 0 0 0 0
0 0 0 0 0 0
0 0 0 0 0 0
0 0 0 0 0 0
0 0 0 0 0 0
0 0 0 0 0 0
0 0 0 0 0 0
0 0 0 0 0 0
0 0 0 0 0 0
0 0 0 0 0 0
0 0 0 0 0 0
0 0 0 0 0 0
0 0 0 0 0 0
0 0 0 0 0 0
0 0 0 0 0 0
0 0 0 0 0 0
0 0 0 0 0 0
0 0 0 0 0 0
0 0 0 0 0 0
0 0 0 0 0 0
0 0 0 0 0 0
0 0 0 0 0 0
0 0 0 0 0 0
0 0 0 0 0 0
0 0 0 0 0 0
0 0 0 0 0 0
0 0 0 0 0 0
0 0 0 0 0 0
0 0 0 0 0 0
0 0 0 0 0 0
0 0 0 0 0 0
0 0 0 0 0 0
0 0 0 0 0 0
0 0 0 0 0 0
0 0 0 0 0 0
0 0 0 0 0 0
0 0 0 0 0 0
0 0 0 0 0 0
0 0 0 0 0 0
0 0 0 0 0 0
0 0 0 0 0 0
0 0 0 0 0 0
0 0 0 0 0 0
0 0 0 0 0 0
0 0 0 0 0 0
0 0 0 0 0 0
0 0 0 0 0 0
0 0 0 0 0 0
0 0 0 0 0 0
0 0 0 0 0 0
0 0 0 0 0 0
0 0 0 0 0 0
0 0 0 0 0 0
0 0 0 0 0 0
0 0 0 0 0 0
0 0 0 0 0 0
0 0 0 0 0 0
0 0 0 0 0 0
0 0 0 0 0 0
0 0 0 0 0 0
0 0 0 0 0 0
0 0 0 0 0 0
0 0 0 0 0 0
0 0 0 0 0 0
0 0 0 0 0 0
0 0 0 0 0 0
0 0 0 0 0 0
0 0 0 0 0 0
0 0 0 0 0 0
0 0 0 0 0 0
0 0 0 0 0 0
0 0 0 0 0 0
0 0 0 0 0 0
0 0 0 0 0 0
0 0 0 0 0 0
0 0 0 0 0 0
0 0 0 0 0 0
0 0 0 0 0 0
0 0 0 0 0 0
0 0 0 0 0 0
0 0 0 0 0 0
0 0 0 0 0 0
0 0 0 0 0 0
0 0 0 0 0 0
0 0 0 0 0 0
0 0 0 0 0 0
0 0 0 0 0 0
0 0 0 0 0 0
0 0 0 0 0 0
0 0 0 0 0 0
0 0 0 0 0 0
0 0 0 0 0 0
0 0 0 0 0 0
0 0 0 0 0 0
0 0 0 0 0 0
0 0 0 0 0 0
0 0 0 0 0 0
0 0 0 0 0 0
0 0 0 0 0 0
0 0 0 0 0 0
0 0 0 0 0 0
0 0 0 0 0 0
0 0 0 0 0 0
0 0 0 0 0 0
0 0 0 0 0 0
0 0 0 0 0 0
0 0 0 0 0 0
0 0 0 0 0 0
0 0 0 0 0 0
0 0 0 0 0 0
0 0 0 0 0 0
0 0 0 0 0 0
0 0 0 0 0 0
0 0 0 0 0 0
0 0 0 0 0 0
0 0 0 0 0 0
0 0 0 0 0 0
0 0 0 0 0 0
0 0 0 0 0 0
0 0 0 0 0 0
0 0 0 0 0 0
0 0 0 0 0 0
0 0 0 0 0 0
0 0 0 0 0 0
0 0 0 0 0 0
0 0 0 0 0 0
0 0 0 0 0 0
0 0 0 0 0 0
0 0 0 0 0 0
0 0 0 0 0 0
0 0 0 0 0 0
0 0 0 0 0 0
0 0 0 0 0 0
0 0 0 0 0 0
0 0 0 0 0 0
0 0 0 0 0 0
0 0 0 0 0 0
0 0 0 0 0 0
0 0 0 0 0 0
0 0 0 0 0 0
0 0 0 0 0 0
0 0 0 0 0 0
0 0 0 0 0 0
0 0 0 0 0 0
0 0 0 0 0 0
0 0 0 0 0 0
0 0 0 0 0 0
0 0 0 0 0 0
0 0 0 0 0 0
0 0 0 0 0 0
0 0 0 0 0 0
0 0 0 0 0 0
0 0 0 0 0 0
0 0 0 0 0 0
0 0 0 0 0 0
0 0 0 0 0 0
0 0 0 0 0 0
0 0 0 0 0 0
0 0 0 0 0 0
0 0 0 0 0 0
0 0 0 0 0 0
0 0 0 0 0 0
0 0 0 0 0 0
0 0 0 0 0 0
0 0 0 0 0 0
0 0 0 0 0 0
0 0 0 0 0 0
0 0 0 0 0 0
0 0 0 0 0 0
0 0 0 0 0 0
0 0 0 0 0 0
0 0 0 0 0 0
0 0 0 0 0 0
0 0 0 0 0 0
0 0 0 0 0 0
0 0 0 0 0 0
0 0 0 0 0 0
0 0 0 0 0 0
0 0 0 0 0 0
0 0 0 0 0 0
0 0 0 0 0 0
0 0 0 0 0 0
0 0 0 0 0 0
0 0 0 0 0 0
0 0 0 0 0 0
0 0 0 0 0 0
0 0 0 0 0 0
0 0 0 0 0 0
0 0 0 0 0 0
0 0 0 0 0 0
0 0 0 0 0 0
0 0 0 0 0 0
0 0 0 0 0 0
0 0 0 0 0 0
0 0 0 0 0 0
0 0 0 0 0 0
0 0 0 0 0 0
0 0 0 0 0 0
0 0 0 0 0 0
0 0 0 0 0 0
0 0 0 0 0 0
0 0 0 0 0 0
0 0 0 0 0 0
0 0 0 0 0 0
0 0 0 0 0 0
0 0 0 0 0 0
0 0 0 0 0 0
0 0 0 0 0 0
0 0 0 0 0 0
0 0 0 0 0 0
0 0 0 0 0 0
0 0 0 0 0 0
0 0 0 0 0 0
0 0 0 0 0 0
0 0 0 0 0 0
0 0 0 0 0 0
0 0 0 0 0 0
0 0 0 0 0 0
0 0 0 0 0 0
0 0 0 0 0 0
0 0 0 0 0 0
0 0 0 0 0 0
0 0 0 0 0 0
0 0 0 0 0 0
0 0 0 0 0 0
0 0 0 0 0 0
0 0 0 0 0 0
0 0 0 0 0 0
0 0 0 0 0 0
0 0 0 0 0 0
0 0 0 0 0 0
0 0 0 0 0 0
0 0 0 0 0 0
0 0 0 0 0 0
0 0 0 0 0 0
0 0 0 0 0 0
0 0 0 0 0 0
0 0 0 0 0 0
0 0 0 0 0 0
0 0 0 0 0 0
0 0 0 0 0 0
0 0 0 0 0 0
0 0 0 0 0 0
0 0 0 0 0 0
0 0 0 0 0 0
0 0 0 0 0 0
0 0 0 0 0 0
0 0 0 0 0 0
0 0 0 0 0 0
0 0 0 0 0 0
0 0 0 0 0 0
0 0 0 0 0 0
0 0 0 0 0 0
0 0 0 0 0 0
0 0 0 0 0 0
0 0 0 0 0 0
0 0 0 0 0 0
0 0 0 0 0 0
0 0 0 0 0 0
0 0 0 0 0 0
0 0 0 0 0 0
0 0 0 0 0 0
0 0 0 0 0 0
0 0 0 0 0 0
0 0 0 0 0 0
0 0 0 0 0 0
0 0 0 0 0 0
0 0 0 0 0 0
0 0 0 0 0 0
0 0 0 0 0 0
0 0 0 0 0 0
0 0 0 0 0 0
0 0 0 0 0 0
0 0 0 0 0 0
0 0 0 0 0 0
0 0 0 0 0 0
0 0 0 0 0 0
0 0 0 0 0 0
0 0 0 0 0 0
0 0 0 0 0 0
0 0 0 0 0 0
0 0 0 0 0 0
0 0 0 0 0 0
0 0 0 0 0 0
0 0 0 0 0 0
0 0 0 0 0 0
0 0 0 0 0 0
0 0 0 0 0 0
0 0 0 0 0 0
0 0 0 0 0 0
0 0 0 0 0 0
0 0 0 0 0 0
0 0 0 0 0 0
0 0 0 0 0 0
0 0 0 0 0 0
0 0 0 0 0 0
0 0 0 0 0 0
0 0 0 0 0 0
0 0 0 0 0 0
0 0 0 0 0 0
0 0 0 0 0 0
0 0 0 0 0 0
0 0 0 0 0 0
0 0 0 0 0 0
0 0 0 0 0 0
0 0 0 0 0 0
0 0 0 0 0 0
0 0 0 0 0 0
0 0 0 0 0 0
0 0 0 0 0 0
0 0 0 0 0 0
0 0 0 0 0 0
0 0 0 0 0 0
0 0 0 0 0 0
0 0 0 0 0 0
0 0 0 0 0 0
0 0 0 0 0 0
0 0 0 0 0 0
0 0 0 0 0 0
0 0 0 0 0 0
0 0 0 0 0 0
0 0 0 0 0 0
0 0 0 0 0 0
0 0 0 0 0 0
0 0 0 0 0 0
0 0 0 0 0 0
0 0 0 0 0 0
0 0 0 0 0 0
0 0 0 0 0 0
0 0 0 0 0 0
0 0 0 0 0 0
0 0 0 0 0 0
0 0 0 0 0 0
0 0 0 0 0 0
0 0 0 0 0 0
0 0 0 0 0 0
0 0 0 0 0 0
0 0 0 0 0 0
0 0 0 0 0 0
0 0 0 0 0 0
0 0 0 0 0 0
0 0 0 0 0 0
0 0 0 0 0 0
0 0 0 0 0 0
0 0 0 0 0 0
0 0 0 0 0 0
0 0 0 0 0 0
0 0 0 0 0 0
0 0 0 0 0 0
0 0 0 0 0 0
0 0 0 0 0 0
0 0 0 0 0 0
0 0 0 0 0 0
0 0 0 0 0 0
0 0 0 0 0 0
0 0 0 0 0 0
0 0 0 0 0 0
0 0 0 0 0 0
0 0 0 0 0 0
0 0 0 0 0 0
0 0 0 0 0 0
0 0 0 0 0 0
0 0 0 0 0 0
0 0 0 0 0 0
0 0 0 0 0 0
0 0 0 0 0 0
0 0 0 0 0 0
0 0 0 0 0 0
0 0 0 0 0 0
0 0 0 0 0 0
0 0 0 0 0 0
0 0 0 0 0 0
0 0 0 0 0 0
0 0 0 0 0 0
0 0 0 0 0 0
0 0 0 0 0 0
0 0 0 0 0 0
0 0 0 0 0 0
0 0 0 0 0 0
0 0 0 0 0 0
0 0 0 0 0 0
0 0 0 0 0 0
0 0 0 0 0 0
0 0 0 0 0 0
0 0 0 0 0 0
0 0 0 0 0 0
0 0 0 0 0 0
0 0 0 0 0 0
0 0 0 0 0 0
0 0 0 0 0 0
0 0 0 0 0 0
0 0 0 0 0 0
0 0 0 0 0 0
0 0 0 0 0 0
0 0 0 0 0 0
0 0 0 0 0 0
0 0 0 0 0 0
0 0 0 0 0 0
0 0 0 0 0 0
0 0 0 0 0 0
0 0 0 0 0 0
0 0 0 0 0 0
0 0 0 0 0 0
</DataArray>
<DataArray type="Float32" Name="Velocity (m/s)" NumberOfComponents="3" format= "ascii" RangeMin="0" RangeMax="0">
0 0 0 0 0 0 
0 0 0 0 0 0 
0 0 0 0 0 0 
0 0 0 0 0 0 
0 0 0 0 0 0 
0 0 0 0 0 0 
0 0 0 0 0 0 
0 0 0 0 0 0 
0 0 0 0 0 0 
0 0 0 0 0 0 
0 0 0 0 0 0 
0 0 0 0 0 0 
0 0 0 0 0 0 
0 0 0 0 0 0 
0 0 0 0 0 0 
0 0 0 0 0 0 
0 0 0 0 0 0 