<VTKFile type="UnstructuredGrid" version="1.0" byte_order="LittleEndian" header_type="UInt64">
<UnstructuredGrid>
<Piece NumberOfPoints="20184" NumberOfCells="13110">
<PointData>
</PointData>
<CellData Scalars="Temperature (C)">
<DataArray type="Float32" Name="Temperature (C)" format="ascii" RangeMin="22.137" RangeMax="26.7571">
22.2072 22.2107 22.2186 22.2548 22.2123 22.2137
22.2167 22.2513 22.3048 22.3341 22.3011 22.3295
22.2018 22.2047 22.2126 22.2464 22.2063 22.2078
22.2127 22.2442 22.2953 22.3246 22.2922 22.3202
22.3437 22.343 22.3386 22.3386 22.3513 22.393
22.3491 22.3942 22.3349 22.3355 22.3299 22.3308
22.3453 22.3874 22.3424 22.3874 22.4764 22.5956
22.4794 22.5988 22.7421 22.9082 22.7449 22.9107
22.4703 22.5882 22.472 22.5903 22.7333 22.8981
22.7352 22.8998 23.0878 23.2762 23.09 23.2782
23.463 23.6458 23.4648 23.6475 23.0764 23.2636
23.0779 23.2649 23.4492 23.6309 23.4505 23.6321
23.8311 24.0176 23.8328 24.0196 24.1757 24.3047
24.1781 24.3074 23.8152 24.0006 23.8165 24.0021
24.1578 24.286 24.1597 24.2883 24.4338 24.5622
24.6745 24.7712 24.4368 24.5655 24.678 24.7749
24.8405 24.9031 24.8443 24.9071 24.4144 24.5422
24.6538 24.7499 24.4171 24.5451 24.6569 24.7532
24.8187 24.881 24.8222 24.8846 25.0164 25.1495
25.2371 25.0206 25.1541 25.2419 25.3179 25.4105
25.3231 25.4158 24.9937 25.1264 25.2136 24.9976
25.1306 25.218 25.2942 25.3864 25.2988 25.3911
25.4791 25.5301 25.4845 25.5356 25.5766 25.6179
25.5821 25.6235 25.4548 25.5057 25.4595 25.5104
25.5519 25.5931 25.5567 25.5979 25.6526 25.6802
25.6583 25.686 25.7025 25.7241 25.7083 25.73
25.6277 25.6553 25.6326 25.6602 25.6774 25.6991
25.6823 25.704 25.7427 25.7573 25.7486 25.7634
25.772 25.7886 25.7783 25.7948 25.7176 25.7322
25.7226 25.7374 25.747 25.7636 25.7523 25.7688
25.8084 25.8336 25.8144 25.8396 25.8665 25.9102
25.8727 25.9167 25.7834 25.8084 25.7883 25.8134
25.8414 25.8851 25.8465 25.8904 25.9676 26.0413
25.9742 26.0479 26.1333 26.2445 26.1399 26.2511
25.9424 26.016 25.9478 26.0214 26.1079 26.2189
26.1133 26.2243 26.3733 26.5141 26.3799 26.5209
26.6538 26.7389 26.6614 26.75 26.3474 26.4876
26.3528 26.4932 26.626 26.7095 26.6325 26.7185
22.2505 22.2513 22.2527 22.2799 22.3092 22.3098
22.3116 22.332 22.3217 22.3432 22.3635 22.3768
22.4266 22.4277 22.4315 22.4496 22.5616 22.5633
22.5682 22.5854 22.474 22.4854 22.6068 22.6193
22.2444 22.2453 22.2485 22.2732 22.3023 22.3031
22.3058 22.3244 22.3133 22.3349 22.3548 22.3689
22.4186 22.4197 22.4234 22.4397 22.5524 22.5539
22.5583 22.5739 22.4632 22.475 22.5943 22.6069
22.3474 22.3449 22.375 22.3676 22.3553 22.4048
22.3738 22.4261 22.4873 22.4886 22.6269 22.6365
22.5061 22.555 22.6601 22.7073 22.3398 22.3383
22.3685 22.363 22.3496 22.3985 22.3715 22.4229
22.4778 22.4801 22.615 22.6251 22.4981 22.5468
22.6488 22.6958 22.6967 22.6986 22.704 22.7203
22.8242 22.8261 22.8312 22.846 22.7403 22.7536
22.8638 22.8758 22.9099 22.9117 22.9164 22.9298
22.963 22.9647 22.9691 22.9813 22.9453 22.9548
22.9951 23.0025 22.6863 22.6879 22.6926 22.7076
22.813 22.8146 22.8189 22.8326 22.7265 22.7396
22.8495 22.8611 22.8981 22.8995 22.9036 22.9159
22.9508 22.9522 22.9559 22.9672 22.9306 22.9398
22.9802 22.9874 22.7641 22.7777 22.8854 22.8979
22.8027 22.8472 22.9195 22.959 22.9612 22.9694
23.006 23.0104 22.9853 23.0187 23.0215 23.0503
22.7504 22.7643 22.871 22.8837 22.7894 22.8337
22.9056 22.9448 22.9464 22.9548 22.991 22.9957
22.971 23.0043 23.0072 23.0359 22.4941 22.6146
22.52 22.6414 22.7602 22.925 22.786 22.9494
22.6374 22.7478 22.7814 22.8811 22.8821 23.036
23.0043 23.1476 22.4868 22.6062 22.5147 22.6345
22.7506 22.9143 22.7777 22.9396 22.6285 22.7381
22.7695 22.8687 22.8715 23.0243 22.9912 23.1337
23.1032 23.2902 23.1258 23.311 23.4756 23.6573
23.4949 23.6752 23.2044 23.3831 23.3069 23.4781
23.5621 23.7386 23.6514 23.8232 23.0913 23.2771
23.1147 23.2986 23.4615 23.6422 23.4814 23.6607
23.1916 23.3693 23.2921 23.4625 23.5473 23.7229
23.6349 23.8059 22.9145 23.0055 23.0192 23.1024
23.1195 23.2541 23.209 23.3371 23.0728 23.1506
23.1 23.1742 23.2527 23.3773 23.2736 23.3964
22.9006 22.9912 23.0047 23.0876 23.1046 23.2386
23.1937 23.3211 23.0582 23.1356 23.0855 23.1594
23.2372 23.3612 23.2583 23.3805 23.406 23.5712
23.4836 23.6446 23.7396 23.9073 23.8097 23.9743
23.5213 23.6806 23.5394 23.698 23.8445 24.0078
23.8613 24.0241 23.3897 23.5541 23.4669 23.6272
23.7218 23.8888 23.7916 23.9555 23.5046 23.6631
23.5227 23.6806 23.8262 23.9888 23.8432 24.0052
23.0367 23.0382 23.0419 23.0522 23.101 23.1023
23.1055 23.114 23.063 23.0668 23.1215 23.1211
23.1508 23.1519 23.1546 23.1617 23.204 23.2049
23.2071 23.2127 23.1667 23.1629 23.2151 23.208
23.024 23.0252 23.0284 23.0378 23.088 23.089
23.0916 23.0994 23.048 23.0516 23.1064 23.1058
23.1374 23.1383 23.1406 23.147 23.1904 23.1911
23.193 23.198 23.1514 23.1476 23.1999 23.1928
23.0651 23.0628 23.1135 23.1035 23.0655 23.0866
23.0971 23.1098 23.1507 23.1347 23.1915 23.17
23.1213 23.1273 23.1502 23.15 23.0502 23.0482
23.0986 23.0891 23.0516 23.0727 23.0836 23.0965
23.1359 23.1205 23.1769 23.1561 23.1081 23.1145
23.1375 23.1378 23.2471 23.248 23.2497 23.2843
23.2851 23.2866 23.2541 23.2901 23.3252 23.3259
23.3272 23.3686 23.3693 23.3704 23.3301 23.373
23.2547 23.2895 23.2455 23.2792 23.3288 23.3715
23.3179 23.3607 23.4217 23.4223 23.4234 23.4258
23.4674 23.468 23.469 23.4714 23.4245 23.4148
23.4707 23.4625 23.2332 23.2338 23.2351 23.2701
23.2706 23.2717 23.2389 23.2747 23.3107 23.3111
23.312 23.3538 23.3541 23.3549 23.3145 23.3571
23.2391 23.2738 23.2301 23.2636 23.3128 23.3553
23.3021 23.3447 23.4064 23.4068 23.4075 23.4095
23.4518 23.4521 23.4528 23.4549 23.408 23.3985
23.454 23.446 23.2265 23.2589 23.202 23.2328
23.2972 23.3407 23.2708 23.3155 23.1788 23.2083
23.1751 23.2027 23.2463 23.2928 23.2402 23.2876
23.3967 23.3743 23.447 23.428 23.355 23.3525
23.4127 23.4136 23.2117 23.2439 23.1878 23.2186
23.282 23.3252 23.2563 23.3008 23.1659 23.1952
23.1627 23.1901 23.2329 23.2789 23.2273 23.2743
23.3809 23.3591 23.4309 23.4124 23.3406 23.3385
23.3979 23.3991 23.1294 23.1984 23.1455 23.2097
23.2942 23.415 23.3026 23.422 23.1575 23.2179
23.1749 23.2316 23.3087 23.4271 23.3201 23.4372
23.1154 23.1842 23.1323 23.1962 23.2795 23.3996
23.2886 23.4073 23.1449 23.2051 23.163 23.2195
23.2953 23.413 23.3074 23.4238 23.5569 23.7151
23.5636 23.7219 23.8783 24.0407 23.8852 24.0475
23.5684 23.7267 23.5779 23.7357 23.8899 24.052
23.8982 24.0594 23.5408 23.6982 23.5481 23.7055
23.8605 24.0221 23.8679 24.0294 23.5534 23.7108
23.5634 23.7202 23.873 24.0343 23.8818 24.0421
23.1968 23.2227 23.2511 23.2755 23.2595 23.3074
23.3111 23.3585 23.3377 23.3606 23.4536 23.4752
23.3947 23.4406 23.5075 23.551 23.3739 23.4249
23.4372 23.4886 23.5052 23.6126 23.5676 23.6722
23.1848 23.2105 23.2389 23.2631 23.247 23.2944
23.2984 23.3453 23.325 23.3477 23.4402 23.4616
23.3816 23.4269 23.4936 23.5366 23.3602 23.4109
23.4229 23.474 23.4908 23.5975 23.5527 23.6566
23.5939 23.6145 23.7506 23.7696 23.6449 23.6856
23.7975 23.8348 23.9117 23.929 24.0715 24.0869
23.9542 23.9878 24.1094 24.1394 23.743 23.8873
23.7985 23.9382 24.0353 24.1818 24.0811 24.2227
23.5797 23.6002 23.7353 23.7542 23.6303 23.6705
23.7818 23.8187 23.8955 23.9126 24.0543 24.0696
23.9376 23.9709 24.0919 24.1216 23.7274 23.8708
23.7824 23.9211 24.0179 24.1636 24.0633 24.2042
23.842 24.0285 23.8588 24.0446 24.1872 24.3168
24.2029 24.3323 23.9187 24.101 23.9987 24.176
24.2561 24.3827 24.3263 24.4487 23.8259 24.0114
23.8433 24.028 24.1691 24.2979 24.1853 24.3139
23.9021 24.0834 23.9806 24.157 24.2376 24.3634
24.3066 24.4284 24.4464 24.575 24.6874 24.7843
24.4616 24.5898 24.7018 24.7983 24.8537 24.9164
24.8675 24.93 24.5091 24.6344 24.7439 24.8383
24.5709 24.6921 24.7979 24.8891 24.906 24.967
24.9545 25.0136 24.4267 24.5547 24.6664 24.7627
24.4424 24.5699 24.6812 24.7772 24.8317 24.894
24.8459 24.9079 24.4892 24.6139 24.7228 24.8166
24.5501 24.6707 24.7759 24.8666 24.8838 24.9445
24.9316 24.9904 24.0786 24.2509 24.1422 24.3106
24.3965 24.5148 24.4522 24.5673 24.1741 24.3404
24.1897 24.3551 24.4801 24.5933 24.4937 24.606
24.0593 24.2309 24.1226 24.2902 24.3757 24.4936
24.4313 24.5458 24.1543 24.3199 24.17 24.3346
24.459 24.5717 24.4726 24.5844 24.6329 24.75
24.8521 24.9401 24.682 24.7956 24.8947 24.9801
25.0033 25.0607 25.0415 25.0974 24.7062 24.818
24.9154 24.9994 24.7179 24.8286 24.9251 25.0084
25.0599 25.115 25.0683 25.123 24.6112 24.7277
24.8293 24.9169 24.66 24.7731 24.8717 24.9567
24.9797 25.0368 25.0178 25.0734 24.6841 24.7954
24.8923 24.976 24.6958 24.806 24.9021 24.985
25.0361 25.0909 25.0446 25.099 25.0295 25.1624
25.2497 25.0425 25.1744 25.2611 25.3304 25.4226
25.3413 25.4327 25.0772 25.2066 25.2918 25.1205
25.2467 25.3298 25.3705 25.4603 25.4067 25.4945
25.0066 25.1391 25.226 25.0199 25.1513 25.2376
25.3063 25.3981 25.3174 25.4085 25.0541 25.1831
25.2678 25.0969 25.2226 25.3054 25.3461 25.4356
25.3819 25.4694 25.4908 25.5415 25.5003 25.5506
25.5877 25.6287 25.5963 25.6367 25.5267 25.5761
25.5595 25.6079 25.6207 25.6601 25.6517 25.6901
25.466 25.5166 25.4758 25.5259 25.5626 25.6034
25.5713 25.6116 25.5017 25.5508 25.5342 25.5824
25.5954 25.6346 25.626 25.6643 25.1649 25.288
25.3693 25.1991 25.3199 25.3998 25.4447 25.5309
25.4741 25.5593 25.2154 25.3349 25.4142 25.2227
25.3416 25.4206 25.4881 25.573 25.4943 25.5792
25.1406 25.2633 25.3442 25.1748 25.2951 25.3746
25.4193 25.5051 25.4486 25.5335 25.1909 25.3101
25.389 25.1983 25.3168 25.3954 25.4625 25.5471
25.4687 25.5532 25.5949 25.6427 25.6228 25.6704
25.686 25.724 25.7136 25.7515 25.6365 25.6843
25.6428 25.6908 25.7277 25.766 25.7345 25.7731
25.5688 25.6165 25.5967 25.6442 25.6597 25.6975
25.6873 25.7251 25.6103 25.658 25.6165 25.6644
25.7013 25.7394 25.708 25.7464 24.2055 24.3698
24.212 24.3755 24.5072 24.6184 24.512 24.6224
24.216 24.3789 24.2223 24.3839 24.5146 24.6242
24.5183 24.6269 24.1862 24.3497 24.193 24.3557
24.4864 24.5971 24.4916 24.6014 24.1974 24.3594
24.2041 24.3648 24.4944 24.6035 24.4986 24.6065
24.7291 24.8386 24.934 25.0163 24.7321 24.8406
24.9352 25.0168 25.0757 25.1298 25.0757 25.1294
24.7331 24.8408 24.9346 25.0156 24.7346 24.8409
24.9337 25.0138 25.074 25.1274 25.0716 25.1243
24.7073 24.8162 24.9112 24.9931 24.7106 24.8186
24.9127 24.9939 25.0522 25.106 25.0524 25.1058
24.7119 24.819 24.9123 24.9929 24.7137 24.8196
24.9118 24.9915 25.051 25.104 25.0489 25.1013
24.2328 24.2462 24.3925 24.404 24.2659 24.2923
24.421 24.4437 24.5255 24.5353 24.6327 24.641
24.5498 24.5695 24.6536 24.6709 24.3295 24.4759
24.3656 24.5071 24.5976 24.6956 24.6248 24.7196
24.2147 24.228 24.3736 24.3849 24.2476 24.2737
24.4017 24.4242 24.5058 24.5154 24.6125 24.6206
24.5299 24.5494 24.6332 24.6503 24.3106 24.4562
24.3463 24.4871 24.5772 24.6747 24.6042 24.6985
24.739 24.8439 24.7458 24.8493 24.9354 25.0145
24.9395 25.0174 24.7565 24.858 24.7713 24.8704
24.9465 25.0229 24.9567 25.0314 25.0715 25.0736
25.1235 25.1249 25.0781 25.0851 25.1283 25.1342
24.7926 24.8885 24.972 25.0441 24.8135 24.9062
24.9869 25.0567 25.096 25.1434 25.1069 25.1526
24.7183 24.8227 24.725 24.8279 24.9137 24.9923
24.9176 24.9951 24.7355 24.8365 24.7502 24.8488
24.9246 25.0006 24.9347 25.0089 25.049 25.051
25.1007 25.102 25.0554 25.0624 25.1054 25.1111
24.7714 24.8667 24.9498 25.0215 24.792 24.8843
24.9646 25.0339 25.0731 25.1202 25.0838 25.1293
25.2286 25.3469 25.4256 25.2276 25.3451 25.4235
25.4991 25.5841 25.4969 25.582 25.2249 25.3418
25.4198 25.2207 25.3364 25.4137 25.493 25.578
25.4863 25.5707 25.2044 25.3221 25.4005 25.2036
25.3206 25.3986 25.4736 25.5582 25.4717 25.5563
25.2011 25.3174 25.3951 25.1973 25.3124 25.3894
25.4679 25.5523 25.4615 25.5455 25.648 25.6963
25.6462 25.6948 25.7405 25.7797 25.7395 25.7792
25.6421 25.6909 25.6347 25.6833 25.7359 25.7759
25.7282 25.7684 25.6218 25.67 25.6201 25.6686
25.7141 25.7531 25.7131 25.7527 25.6162 25.6649
25.6091 25.6576 25.7096 25.7495 25.7023 25.7423
25.2187 25.2187 25.3328 25.4092 25.331 25.4063
25.2202 25.2237 25.3303 25.4041 25.331 25.403
25.4808 25.477 25.5644 25.5594 25.4734 25.4704
25.5542 25.5491 25.2298 25.3333 25.4026 25.2361
25.336 25.4028 25.4676 25.5432 25.4654 25.5379
25.1954 25.1953 25.309 25.385 25.3071 25.382
25.1968 25.2002 25.3064 25.3798 25.3071 25.3786
25.4563 25.4523 25.5393 25.5342 25.4487 25.4458
25.529 25.5239 25.2062 25.3093 25.3783 25.2125
25.3119 25.3784 25.4429 25.518 25.4406 25.5127
25.6277 25.6219 25.6759 25.6695 25.6154 25.6087
25.6621 25.6541 25.7205 25.7136 25.7604 25.7531
25.7053 25.696 25.744 25.7336 25.6004 25.644
25.5927 25.6343 25.6841 25.72 25.6726 25.7067
25.6022 25.5963 25.6503 25.6439 25.5899 25.5831
25.6365 25.6285 25.6947 25.6877 25.7345 25.727
25.6795 25.6702 25.718 25.7076 25.5749 25.6184
25.5672 25.6087 25.6583 25.694 25.6468 25.6807
23.4966 23.4973 23.4983 23.5007 23.5384 23.539
23.54 23.5426 23.5005 23.4935 23.5433 23.5381
23.5766 23.5772 23.5783 23.5812 23.6015 23.6021
23.6033 23.6065 23.5829 23.5795 23.6089 23.6067
23.4808 23.4811 23.4819 23.484 23.5223 23.5226
23.5234 23.5257 23.4837 23.4768 23.5263 23.5212
23.5602 23.5606 23.5614 23.5641 23.5849 23.5853
23.5863 23.5892 23.5657 23.5624 23.5916 23.5895
23.4797 23.4632 23.5271 23.5142 23.4507 23.4539
23.5058 23.5126 23.5712 23.5618 23.6003 23.5932
23.5573 23.5674 23.5913 23.6035 23.4635 23.4474
23.5106 23.4981 23.4355 23.439 23.4903 23.4973
23.5545 23.5455 23.5834 23.5767 23.5415 23.5518
23.5753 23.5877 23.6244 23.625 23.6264 23.63
23.6502 23.6509 23.6523 23.6561 23.633 23.632
23.66 23.6603 23.6734 23.6741 23.6756 23.6796
23.6869 23.6876 23.6892 23.6932 23.684 23.6856
23.698 23.7004 23.6078 23.6083 23.6095 23.6129
23.6332 23.6337 23.635 23.6387 23.6159 23.615
23.6425 23.6429 23.6562 23.6567 23.6581 23.6619
23.6695 23.6701 23.6715 23.6754 23.6664 23.6681
23.6803 23.6828 23.6273 23.6224 23.6576 23.6553
23.6229 23.6371 23.6584 23.6749 23.6849 23.6849
23.701 23.7026 23.6905 23.7091 23.7097 23.7293
23.6106 23.6061 23.6405 23.6384 23.607 23.6214
23.642 23.6586 23.6676 23.6679 23.6836 23.6855
23.6739 23.6925 23.693 23.7126 23.479 23.5308
23.54 23.5924 23.6091 23.7117 23.6695 23.7695
23.5969 23.6498 23.6345 23.6877 23.7259 23.8231
23.7629 23.8582 23.4643 23.5158 23.5249 23.577
23.5937 23.6958 23.6537 23.7532 23.5814 23.6341
23.6186 23.6716 23.7097 23.8064 23.7464 23.8412
23.8355 23.972 23.8895 24.0213 24.1116 24.25
24.1561 24.2896 23.939 24.0662 23.9711 24.0952
24.1964 24.3253 24.2221 24.3479 23.8191 23.9547
23.8727 24.0037 24.0936 24.2312 24.1378 24.2706
23.9218 24.0483 23.9536 24.077 24.1777 24.3059
24.2033 24.3284 23.6693 23.7227 23.7083 23.7619
23.797 23.8904 23.835 23.9259 23.7434 23.7967
23.7638 23.8163 23.8682 23.9564 23.8861 23.9717
23.6535 23.7067 23.692 23.7453 23.7807 23.8735
23.8181 23.9086 23.7269 23.7799 23.7472 23.7994
23.8511 23.9389 23.8689 23.9541 24 24.1209
24.0319 24.1491 24.2448 24.3675 24.2692 24.3883
24.0587 24.1718 24.0708 24.1804 24.2878 24.403
24.293 24.4049 23.9822 24.1025 24.0139 24.1305
24.2258 24.3479 24.25 24.3685 24.0406 24.1531
24.0527 24.1617 24.2685 24.3831 24.2737 24.385
23.691 23.6917 23.6932 23.6973 23.6875 23.6882
23.6897 23.6936 23.7022 23.705 23.6984 23.7011
23.6831 23.6838 23.6853 23.6891 23.6738 23.6745
23.6759 23.6794 23.6936 23.6961 23.6834 23.6854
23.6735 23.674 23.6754 23.6794 23.6698 23.6704
23.6718 23.6757 23.6844 23.6873 23.6805 23.6833
23.6654 23.6659 23.6673 23.6711 23.656 23.6565
23.6579 23.6614 23.6757 23.6783 23.6655 23.6676
23.7061 23.7085 23.7022 23.7044 23.7161 23.7358
23.7117 23.7308 23.6971 23.6991 23.6858 23.6872
23.706 23.7245 23.6932 23.7106 23.6887 23.6913
23.6847 23.6872 23.6993 23.7191 23.6949 23.7141
23.6795 23.6818 23.6683 23.67 23.6891 23.7077
23.6764 23.6939 23.6592 23.6598 23.6611 23.6642
23.6417 23.6423 23.6435 23.6462 23.6674 23.6685
23.6483 23.6482 23.6125 23.6131 23.6141 23.6159
23.578 23.5785 23.5792 23.5801 23.6162 23.6141
23.5783 23.5738 23.6413 23.6418 23.643 23.6462
23.6239 23.6243 23.6254 23.6281 23.6495 23.6507
23.6303 23.6304 23.5947 23.5951 23.596 23.5979
23.5601 23.5605 23.5612 23.5621 23.5983 23.5963
23.5604 23.556 23.6679 23.6682 23.6464 23.6454
23.6728 23.6888 23.6485 23.6629 23.6102 23.6069
23.5673 23.5613 23.6075 23.6196 23.559 23.5683
23.6504 23.651 23.6289 23.6281 23.656 23.6721
23.6317 23.6462 23.5927 23.5897 23.5499 23.5441
23.5908 23.603 23.5424 23.5518 23.7696 23.8208
23.7636 23.8135 23.8887 23.9719 23.8798 23.9613
23.7564 23.8053 23.7411 23.7885 23.8706 23.951
23.8522 23.9311 23.753 23.8039 23.7469 23.7966
23.8715 23.9543 23.8627 23.9438 23.7397 23.7885
23.7245 23.7718 23.8535 23.9335 23.8352 23.9137
24.0683 24.175 24.0559 24.1609 24.2848 24.3941
24.2691 24.3769 24.0445 24.1485 24.0231 24.1257
24.2558 24.3628 24.2318 24.3378 24.0502 24.1563
24.0379 24.1423 24.2656 24.3743 24.2499 24.3572
24.0266 24.13 24.0053 24.1073 24.2367 24.3431
24.2129 24.3183 23.7175 23.7634 23.6898 23.7342
23.8256 23.9031 23.7948 23.8711 23.6441 23.6863
23.59 23.63 23.7452 23.8201 23.6872 23.7609
23.701 23.7468 23.6734 23.7176 23.8087 23.8858
23.778 23.8539 23.6277 23.6698 23.5738 23.6136
23.7285 23.803 23.6706 23.744 23.9939 24.0955
23.9609 24.0616 24.2008 24.3061 24.1662 24.271
23.9089 24.0089 23.849 23.9487 24.1131 24.2176
24.053 24.1579 23.9762 24.0773 23.9433 24.0435
24.182 24.2867 24.1475 24.2517 23.8913 23.9908
23.8316 23.9308 24.0945 24.1985 24.0346 24.1389
24.3895 24.5279 24.4244 24.5579 24.6429 24.7355
24.669 24.7585 24.4554 24.5844 24.4749 24.6008
24.6917 24.7782 24.7056 24.7901 24.3701 24.5077
24.4046 24.5375 24.6221 24.7143 24.648 24.7371
24.4354 24.5637 24.4547 24.58 24.6705 24.7566
24.6843 24.7684 24.8273 24.9179 24.9968 25.0649
24.8471 24.9346 25.0108 25.0766 25.114 25.1587
25.1239 25.167 24.8639 24.9485 25.0221 25.0856
24.8738 24.9564 25.0283 25.0903 25.1313 25.1729
25.1348 25.1754 24.8057 24.8958 24.9744 25.0421
24.8253 24.9124 24.9883 25.0537 25.0908 25.1353
25.1007 25.1436 24.8419 24.9261 24.9993 25.0625
24.8517 24.9339 25.0054 25.0671 25.1079 25.1493
25.1114 25.1518 24.4916 24.6146 24.5087 24.6282
24.717 24.7996 24.7277 24.8079 24.5195 24.6352
24.5182 24.6309 24.7317 24.8094 24.7248 24.8005
24.4713 24.5937 24.4883 24.6072 24.6956 24.7777
24.7062 24.7861 24.499 24.6142 24.4977 24.6098
24.7101 24.7875 24.7033 24.7786 24.8813 24.9621
25.0323 25.0928 24.8874 24.9659 25.0341 25.093
25.1364 25.176 25.1352 25.1737 24.8864 24.9625
25.0287 25.0857 24.8756 24.9498 25.0143 25.0699
25.1266 25.1638 25.1097 25.146 24.8592 24.9395
25.0094 25.0696 24.8652 24.9433 25.0112 25.0697
25.1129 25.1523 25.1117 25.1499 24.8642 24.9399
25.0057 25.0624 24.8534 24.9272 24.9914 25.0466
25.1031 25.1401 25.0863 25.1223 25.2402 25.3376
25.4028 25.2456 25.3395 25.402 25.4636 25.5341
25.4604 25.5277 25.2486 25.339 25.3991 25.2493
25.3373 25.3957 25.4549 25.5189 25.4498 25.5115
25.2164 25.3135 25.3783 25.2218 25.3153 25.3775
25.4388 25.5089 25.4355 25.5024 25.2247 25.3147
25.3744 25.2253 25.313 25.371 25.43 25.4936
25.4249 25.4861 25.5872 25.6275 25.5781 25.6163
25.6644 25.6972 25.6512 25.6821 25.5665 25.6023
25.557 25.5912 25.635 25.6639 25.6223 25.6498
25.5617 25.6018 25.5526 25.5906 25.6386 25.6713
25.6253 25.656 25.5408 25.5765 25.5309 25.5649
25.6091 25.6378 25.5958 25.6231 25.2481 25.3339
25.3905 25.2436 25.3267 25.3814 25.4431 25.5026
25.432 25.4887 25.2315 25.3118 25.3644 25.212
25.2901 25.3412 25.413 25.467 25.3882 25.4402
25.2241 25.3095 25.3658 25.2196 25.3023 25.3567
25.4181 25.4771 25.407 25.4632 25.2075 25.2874
25.3397 25.188 25.2657 25.3165 25.388 25.4414
25.3633 25.4147 25.5446 25.5769 25.5278 25.5579
25.6064 25.6325 25.5855 25.6098 25.5035 25.5315
25.475 25.5017 25.5573 25.58 25.5262 25.5476
25.519 25.5511 25.5022 25.5321 25.5805 25.6064
25.5596 25.5838 25.4779 25.5058 25.4496 25.4761
25.5314 25.5539 25.5003 25.5216 24.5049 24.6152
24.4864 24.5954 24.7072 24.7815 24.6865 24.7599
24.4715 24.5798 24.4456 24.5531 24.6703 24.7434
24.643 24.7155 24.4845 24.5942 24.4661 24.5745
24.6858 24.7597 24.6651 24.7382 24.4513 24.559
24.4255 24.5324 24.649 24.7217 24.6218 24.694
24.8551 24.9279 24.9912 25.0457 24.8329 24.9049
24.9676 25.0215 25.0848 25.1204 25.0603 25.0956
24.8159 24.8876 24.9499 25.0036 24.7876 24.8588
24.9208 24.9742 25.0422 25.0773 25.0126 25.0475
24.833 24.9054 24.9683 25.0225 24.8108 24.8824
24.9448 24.9984 25.0614 25.0968 25.037 25.0721
24.7939 24.8652 24.9272 24.9806 24.7657 24.8365
24.8982 24.9513 25.0189 25.0539 24.9894 25.0242
24.4133 24.5203 24.3778 24.4845 24.6098 24.6821
24.5737 24.6458 24.3243 24.4309 24.2651 24.3722
24.5202 24.5924 24.4621 24.5347 24.3934 24.4998
24.358 24.464 24.5888 24.6607 24.5528 24.6245
24.3046 24.4106 24.2455 24.3521 24.4994 24.5712
24.4414 24.5137 24.754 24.8249 24.8867 24.94
24.7175 24.7883 24.85 24.9033 24.9783 25.0132
24.9416 24.9765 24.6642 24.7351 24.797 24.8504
24.6069 24.6784 24.7407 24.7945 24.8888 24.9239
24.8333 24.8687 24.7322 24.8028 24.8642 24.9172
24.6958 24.7663 24.8277 24.8806 24.9553 24.99
24.9187 24.9533 24.6426 24.7132 24.7748 24.8279
24.5856 24.6567 24.7187 24.7722 24.8661 24.9009
24.8107 24.8459 25.1852 25.2617 25.3118 25.1598
25.2358 25.2854 25.3579 25.4087 25.331 25.3814
25.1413 25.2169 25.2663 25.1111 25.1865 25.2358
25.3118 25.362 25.2812 25.3313 25.1613 25.2375
25.2873 25.136 25.2115 25.2609 25.333 25.3833
25.3062 25.3561 25.1175 25.1927 25.2419 25.0875
25.1625 25.2115 25.2871 25.3368 25.2565 25.3061
25.4426 25.4685 25.4152 25.441 25.4922 25.5129
25.4644 25.4848 25.3957 25.4214 25.3647 25.3903
25.4447 25.4651 25.4136 25.434 25.4172 25.4429
25.3899 25.4154 25.4664 25.4869 25.4386 25.4589
25.3704 25.3959 25.3395 25.3649 25.419 25.4392
25.3881 25.4083 25.0768 25.1521 25.2015 25.04
25.1156 25.1652 25.247 25.2974 25.2109 25.2617
24.9878 25.064 25.1142 24.9333 25.0105 25.0617
25.1606 25.2125 25.1092 25.1629 25.0532 25.1282
25.1773 25.0166 25.0918 25.141 25.2225 25.2723
25.1865 25.2367 24.9645 25.0403 25.0902 24.9102
24.9871 25.0379 25.1364 25.1878 25.0852 25.1383
25.3312 25.357 25.2958 25.3219 25.3806 25.4012
25.3459 25.3668 25.2477 25.2748 25.2 25.2285
25.2996 25.3213 25.2545 25.2772 25.306 25.3317
25.2708 25.2968 25.3551 25.3755 25.3205 25.3413
25.2229 25.2498 25.1753 25.2036 25.2744 25.2959
25.2294 25.252 25.663 25.6903 25.6705 25.6973
25.7122 25.7336 25.7187 25.7394 25.6929 25.7185
25.7219 25.7464 25.7388 25.7582 25.7655 25.7833
25.6376 25.6648 25.6453 25.6719 25.6866 25.7079
25.6932 25.7139 25.6672 25.6928 25.6959 25.7204
25.713 25.7324 25.7394 25.7572 25.7518 25.7663
25.757 25.7708 25.7808 25.7968 25.7846 25.7998
25.7742 25.7865 25.7972 25.8079 25.7987 25.8124
25.8186 25.8306 25.7262 25.7406 25.7315 25.7453
25.7551 25.7711 25.7591 25.7743 25.7484 25.7607
25.7712 25.7819 25.7729 25.7866 25.7926 25.8047
25.7551 25.7789 25.7826 25.8063 25.797 25.8128
25.8241 25.8394 25.7974 25.8214 25.8049 25.8292
25.8396 25.8552 25.8477 25.8638 25.7286 25.7523
25.7561 25.7797 25.7704 25.7864 25.7975 25.8129
25.7707 25.7947 25.7781 25.8024 25.8128 25.8287
25.8208 25.8372 25.8235 25.8332 25.8495 25.8588
25.8428 25.8535 25.8677 25.8774 25.8663 25.8759
25.8758 25.886 25.8848 25.8941 25.895 25.9041
25.7971 25.8068 25.8229 25.8321 25.8164 25.8271
25.841 25.8507 25.8395 25.8491 25.8489 25.859
25.858 25.8673 25.868 25.8772 25.8159 25.8406
25.8182 25.8421 25.8733 25.9166 25.8738 25.9161
25.8291 25.8512 25.8457 25.8657 25.8808 25.9208
25.8932 25.9306 25.7901 25.8148 25.7926 25.8164
25.8473 25.8906 25.8481 25.8904 25.8033 25.8253
25.8197 25.8397 25.855 25.895 25.8672 25.9046
25.9734 26.0463 25.9718 26.0434 26.1375 26.2478
26.1333 26.2424 25.974 26.043 25.981 26.0472
26.1302 26.2369 26.1315 26.2355 25.9473 26.0202
25.9459 26.0175 26.1112 26.2214 26.1073 26.2162
25.9481 26.0171 25.955 26.0211 26.1042 26.2107
26.1054 26.2093 25.8669 25.8851 25.8895 25.906
25.9103 25.9453 25.9291 25.9617 25.9055 25.9208
25.9151 25.9298 25.9425 25.9733 25.9506 25.9802
25.8405 25.8587 25.8628 25.8793 25.884 25.919
25.9025 25.935 25.8786 25.894 25.8881 25.9028
25.9157 25.9466 25.9236 25.9533 25.993 26.0562
26.0065 26.0668 26.1376 26.239 26.1452 26.2439
26.0162 26.0743 26.0218 26.0785 26.1505 26.2472
26.1534 26.2487 25.9666 26.0298 25.9799 26.0402
26.1112 26.2125 26.1186 26.2172 25.9894 26.0476
25.995 26.0517 26.1238 26.2204 26.1266 26.2219
25.8122 25.8371 25.8122 25.8379 25.8563 25.8733
25.8577 25.8756 25.8094 25.8355 25.8021 25.8285
25.8558 25.8743 25.8491 25.8681 25.7854 25.8103
25.7856 25.8111 25.8294 25.8465 25.8308 25.8488
25.7828 25.8088 25.7758 25.802 25.829 25.8475
25.8225 25.8415 25.8874 25.8987 25.891 25.9031
25.9081 25.9172 25.9129 25.9219 25.8905 25.9032
25.8851 25.8982 25.9133 25.9222 25.9083 25.917
25.8607 25.8719 25.8641 25.8761 25.8813 25.8903
25.8858 25.8948 25.8637 25.8762 25.8583 25.8712
25.8862 25.8951 25.8813 25.8899 25.794 25.7863
25.8203 25.8123 25.7766 25.7652 25.8021 25.7898
25.8409 25.8327 25.86 25.8516 25.822 25.809
25.8404 25.8266 25.75 25.7733 25.7351 25.757
25.7914 25.8077 25.7738 25.7888 25.7678 25.76
25.794 25.7859 25.7503 25.739 25.7757 25.7635
25.8145 25.8062 25.8335 25.825 25.7955 25.7826
25.8139 25.8001 25.7239 25.7471 25.7089 25.7307
25.765 25.7813 25.7474 25.7624 25.8771 25.8682
25.8901 25.8809 25.8563 25.8416 25.8685 25.853
25.9001 25.8905 25.9084 25.8984 25.8775 25.8611
25.8847 25.8673 25.8214 25.8314 25.801 25.8096
25.8382 25.843 25.8149 25.8183 25.8503 25.8415
25.8632 25.854 25.8297 25.8151 25.8417 25.8262
25.873 25.8635 25.8813 25.8714 25.8506 25.8343
25.8577 25.8404 25.7949 25.8047 25.7745 25.7829
25.8114 25.8162 25.7882 25.7915 25.9276 25.9414
25.9318 25.9448 25.9609 25.989 25.9632 25.9898
25.9317 25.944 25.9261 25.9375 25.9615 25.9869
25.9539 25.9779 25.9008 25.9146 25.9047 25.9177
25.9341 25.9623 25.9361 25.9628 25.9046 25.9169
25.899 25.9104 25.9343 25.9598 25.9267 25.9508
26.0288 26.0835 26.0279 26.0807 26.1564 26.2497
26.1516 26.2431 26.0235 26.0748 26.013 26.0626
26.1441 26.2341 26.1301 26.2184 26.0021 26.0569
26.0009 26.0537 26.1297 26.223 26.1247 26.2161
25.9965 26.0479 25.986 26.0356 26.1172 26.2072
26.1032 26.1915 25.9168 25.9062 25.9275 25.9161
25.8917 25.8733 25.9006 25.8811 25.9428 25.9305
25.9657 25.9523 25.9139 25.8931 25.9344 25.9122
25.8475 25.8537 25.8213 25.8259 25.864 25.8813
25.8346 25.8502 25.8898 25.8792 25.9004 25.8891
25.8647 25.8464 25.8736 25.8542 25.9157 25.9034
25.9386 25.9253 25.8869 25.8662 25.9075 25.8853
25.8207 25.8269 25.7945 25.7991 25.8372 25.8545
25.8078 25.8235 25.9994 25.9848 26.0475 26.0317
25.9656 25.9419 26.0111 25.9858 26.1136 26.0965
26.2004 26.1821 26.0744 26.0477 26.1587 26.1305
25.9091 25.9511 25.8762 25.9164 26.011 26.092
25.9746 26.0539 25.9724 25.9578 26.0206 26.0048
25.9387 25.9151 25.9842 25.9591 26.0867 26.0696
26.1735 26.1552 26.0476 26.0209 26.1319 26.1038
25.8824 25.9244 25.8495 25.8898 25.9844 26.0654
25.948 26.0274 26.376 26.5172 26.3698 26.5111
26.6604 26.7568 26.6566 26.7571 26.3624 26.5031
26.359 26.4988 26.6503 26.7539 26.6466 26.7517
26.3493 26.4899 26.3433 26.484 26.632 26.726
26.6285 26.7266 26.336 26.4762 26.3326 26.472
26.6224 26.7237 26.6188 26.7214 26.3605 26.4993
26.3632 26.5006 26.6474 26.7537 26.6486 26.7558
26.3648 26.5011 26.3652 26.5007 26.6486 26.7561
26.6478 26.7553 26.3338 26.4722 26.3364 26.4734
26.6193 26.7231 26.6203 26.7251 26.3379 26.4738
26.3382 26.4733 26.6203 26.7254 26.6194 26.7245
26.3645 26.4988 26.3562 26.4892 26.6453 26.7526
26.635 26.7423 26.346 26.4779 26.3287 26.4595
26.623 26.7302 26.6039 26.7109 26.3377 26.4716
26.3292 26.4618 26.617 26.7221 26.6065 26.7115
26.3189 26.4505 26.3017 26.4321 26.5945 26.6994
26.5754 26.6802 26.3095 26.29 26.4393 26.419
26.2655 26.236 26.3935 26.363 26.583 26.5623
26.6902 26.6694 26.5363 26.5053 26.6434 26.6124
26.1959 26.3216 26.1563 26.2808 26.4631 26.57
26.4213 26.5281 26.2825 26.2631 26.4119 26.3917
26.2386 26.2092 26.3663 26.3359 26.5547 26.534
26.6595 26.6389 26.508 26.4771 26.613 26.582
26.1692 26.2946 26.1296 26.2538 26.435 26.5398
26.3934 26.4979 25.7245 25.7454 25.7075 25.727
25.7614 25.7754 25.7416 25.7541 25.6876 25.7055
25.6722 25.6891 25.7187 25.7298 25.7014 25.7115
25.6983 25.7191 25.6814 25.7007 25.735 25.749
25.7152 25.7277 25.6613 25.6791 25.6454 25.6622
25.6922 25.7033 25.6744 25.6845 25.7866 25.7942
25.7637 25.7697 25.7985 25.8009 25.7725 25.7733
25.7378 25.7422 25.7182 25.7215 25.7434 25.7426
25.7215 25.7196 25.7601 25.7675 25.7373 25.7431
25.7718 25.7741 25.7459 25.7466 25.7113 25.7156
25.6917 25.6948 25.7167 25.7159 25.6949 25.6929
25.6537 25.6696 25.6297 25.6444 25.6811 25.6902
25.6547 25.6628 25.5983 25.6117 25.5649 25.5774
25.621 25.6278 25.5858 25.5917 25.6275 25.6433
25.6035 25.618 25.6546 25.6637 25.6283 25.6363
25.5721 25.5854 25.5388 25.5511 25.5946 25.6013
25.5595 25.5652 25.6961 25.6982 25.6673 25.668
25.6971 25.6941 25.6656 25.6612 25.6309 25.6302
25.5937 25.5919 25.6264 25.6206 25.5869 25.5798
25.6696 25.6716 25.6407 25.6414 25.6705 25.6675
25.6389 25.6346 25.6044 25.6036 25.5672 25.5654
25.5998 25.5939 25.5604 25.5533 25.8028 25.8064
25.7737 25.7755 25.8139 25.8283 25.7813 25.794
25.7413 25.7415 25.7172 25.7162 25.7456 25.7565
25.7191 25.7287 25.7761 25.7796 25.747 25.7489
25.7872 25.8016 25.7547 25.7674 25.7146 25.7148
25.6905 25.6895 25.7189 25.7299 25.6924 25.7021
25.8532 25.8922 25.817 25.8542 25.9491 26.0273
25.9094 25.9858 25.7777 25.813 25.7486 25.7827
25.8663 25.941 25.8347 25.9081 25.8265 25.8656
25.7905 25.8278 25.9226 26.0008 25.883 25.9595
25.7512 25.7866 25.7222 25.7563 25.84 25.9147
25.8084 25.8818 25.6906 25.6884 25.6563 25.6527
25.6901 25.6985 25.6528 25.6597 25.6141 25.6089
25.5721 25.5654 25.6073 25.6123 25.5623 25.5658
25.664 25.6618 25.6297 25.6261 25.6635 25.672
25.6263 25.6332 25.5875 25.5823 25.5455 25.5389
25.5808 25.5859 25.5359 25.5394 25.7171 25.7499
25.6767 25.7077 25.8006 25.8727 25.7568 25.8272
25.6275 25.6566 25.5792 25.6065 25.7036 25.772
25.6515 25.7178 25.6907 25.7235 25.6503 25.6815
25.7743 25.8465 25.7306 25.8011 25.6011 25.6304
25.5529 25.5803 25.6774 25.7459 25.6254 25.6918
25.5295 25.5413 25.5012 25.5128 25.5492 25.5544
25.5204 25.5254 25.4814 25.4929 25.4503 25.4618
25.5005 25.5052 25.4692 25.4739 25.5034 25.5151
25.4751 25.4867 25.5229 25.528 25.4942 25.499
25.4554 25.4668 25.4244 25.4358 25.4742 25.4789
25.4431 25.4477 25.5557 25.553 25.5263 25.5232