<VTKFile type="UnstructuredGrid" version="1.0" byte_order="LittleEndian" header_type="UInt64">
<UnstructuredGrid>
<Piece NumberOfPoints="4746" NumberOfCells="2958">
<PointData>
</PointData>
<CellData Scalars="Temperature (C)">
<DataArray type="Float32" Name="Temperature (C)" format="ascii" RangeMin="21.7527" RangeMax="24.1634">
22.7279 22.7236 22.6933 22.682 22.6921 22.6794
22.7362 22.7308 22.7709 22.7605 22.7024 22.691
22.7 22.6874 22.7427 22.7304 22.7327 22.7204
22.6436 22.643 22.6531 22.6514 22.696 22.6865
22.58 22.5801 22.5896 22.5886 22.6335 22.6244
22.8385 22.8269 22.8123 22.8006 22.8009 22.7893
22.9176 22.9051 22.9748 23.0043 22.9615 22.9908
22.892 22.8806 22.8797 22.8683 22.9494 22.979
22.9381 22.9677 22.9364 22.9658 22.9251 22.9546
23.031 23.0172 23.0058 22.9945 22.9923 22.9811
23.0972 23.0829 23.0722 23.061 23.0582 23.047
22.7678 22.7569 22.8484 22.8365 22.9059 22.9356
22.8934 22.9229 22.7058 22.6954 22.7862 22.7749
22.8435 22.8731 22.8315 22.8609 22.9625 22.9494
23.0292 23.0156 22.8999 22.8874 22.9666 22.9536
22.5217 22.522 22.5311 22.5305 22.5752 22.5665
22.4694 22.4699 22.4786 22.4783 22.5223 22.5138
22.4127 22.4134 22.4218 22.4216 22.4649 22.4567
22.3516 22.3524 22.3605 22.3604 22.4028 22.3948
22.6469 22.6369 22.7262 22.7153 22.783 22.8123
22.7714 22.8006 22.5934 22.5836 22.6718 22.6612
22.7281 22.7572 22.7168 22.7458 22.839 22.827
22.9054 22.8928 22.7837 22.7719 22.8496 22.8373
22.5354 22.5258 22.6131 22.6027 22.6688 22.6976
22.6578 22.6865 22.4729 22.4634 22.5499 22.5396
22.6051 22.6337 22.5943 22.6227 22.7239 22.7124
22.7893 22.7773 22.6598 22.6485 22.7247 22.7129
23.2045 23.1893 23.1801 23.1691 23.1651 23.1541
23.3063 23.2903 23.2825 23.2717 23.2668 23.256
23.3982 23.3815 23.3752 23.3648 23.3588 23.3484
23.4807 23.4634 23.4586 23.4485 23.4416 23.4315
23.1376 23.1231 23.2411 23.2258 23.0756 23.0616
23.1799 23.1651 23.3349 23.3189 23.4195 23.4028
23.2752 23.2596 23.3614 23.3452 23.5564 23.5387
23.5352 23.5255 23.5178 23.5081 23.6234 23.6054
23.6031 23.5937 23.5853 23.5759 23.684 23.6658
23.6642 23.655 23.6461 23.6369 23.7472 23.7288
23.7272 23.7179 23.7089 23.6996 23.4975 23.4804
23.5667 23.5492 23.4412 23.4244 23.5119 23.4946
23.6285 23.6107 23.6912 23.673 23.5747 23.5571
23.6376 23.6196 23.0144 23.0009 23.1193 23.1049
22.9584 22.9452 23.0635 23.0494 23.2155 23.2003
23.3029 23.2869 23.1602 23.1453 23.2484 23.2327
22.8979 22.8849 23.0031 22.9893 22.8331 22.8203
22.9382 22.9247 23.1002 23.0855 23.1888 23.1734
23.0353 23.0209 23.1243 23.1092 23.3839 23.3674
23.4558 23.4388 23.3303 23.314 23.4031 23.3863
23.5196 23.5022 23.5831 23.5654 23.4677 23.4505
23.5318 23.5143 23.2715 23.2554 23.3451 23.3285
23.2076 23.1919 23.282 23.2657 23.4104 23.3935
23.4754 23.4581 23.3482 23.3315 23.4141 23.397
22.2894 22.2902 22.2979 22.2978 22.3389 22.3312
22.23 22.2306 22.2381 22.2378 22.2771 22.2696
22.1738 22.1742 22.1815 22.181 22.2187 22.2114
22.1104 22.1107 22.1177 22.1172 22.1531 22.1461
22.4076 22.3985 22.4839 22.4738 22.5389 22.5674
22.5283 22.5566 22.343 22.3344 22.4181 22.4086
22.4729 22.5014 22.4627 22.4911 22.5934 22.5823
22.6583 22.6467 22.5274 22.5168 22.5924 22.5812
22.2819 22.2737 22.3555 22.3464 22.41 22.4384
22.4003 22.4285 22.2138 22.206 22.2857 22.2771
22.3397 22.3679 22.3304 22.3584 22.4644 22.4542
22.5295 22.5187 22.3938 22.384 22.4587 22.4483
22.0417 22.042 22.0486 22.0481 22.0825 22.0757
21.9766 21.9769 21.9832 21.9828 22.0156 22.0092
21.917 21.9173 21.9233 21.9229 21.9544 21.9484
21.8641 21.8647 21.8701 21.87 21.8999 21.8944
22.141 22.1335 22.2113 22.203 22.2646 22.2925
22.2556 22.2834 22.0722 22.0651 22.141 22.1332
22.1936 22.2212 22.1851 22.2125 22.3182 22.3087
22.3827 22.3727 22.2467 22.2376 22.3106 22.3009
22.0092 22.0026 22.0766 22.0691 22.1283 22.1555
22.1202 22.1472 21.9529 21.9468 22.0188 22.0118
22.0696 22.0962 22.0619 22.0884 22.1806 22.172
22.2437 22.2345 22.1209 22.1127 22.1828 22.174
22.7668 22.7543 22.8725 22.8591 22.7017 22.6895
22.8083 22.7952 22.9697 22.9555 23.0588 23.044
22.9062 22.8923 22.9958 22.9812 22.6394 22.6275
22.7468 22.734 22.569 22.5575 22.677 22.6645
22.8454 22.8318 22.9356 22.9213 22.7763 22.763
22.8671 22.8531 23.1426 23.1271 23.2177 23.2017
23.0801 23.0648 23.1559 23.1401 23.2847 23.2682
23.3515 23.3347 23.2237 23.2075 23.2915 23.2749
23.0205 23.0055 23.097 23.0815 22.9527 22.9381
23.03 23.0148 23.1656 23.1496 23.2344 23.218
23.0995 23.0838 23.1695 23.1533 22.4929 22.4818
22.6011 22.589 22.4202 22.4094 22.5281 22.5164
22.7007 22.6878 22.7921 22.7784 22.6277 22.6152
22.7194 22.7061 22.3521 22.3419 22.4592 22.448
22.2895 22.2796 22.3951 22.3842 22.5584 22.5463
22.6499 22.637 22.4933 22.4815 22.5842 22.5716
22.8784 22.8641 22.9565 22.9417 22.8062 22.7922
22.8849 22.8704 23.027 23.0116 23.0981 23.0823
22.9562 22.9411 23.0283 23.0128 22.7369 22.7233
22.816 22.8019 22.6709 22.6576 22.7501 22.7362
22.8879 22.8732 22.9608 22.9456 22.8222 22.8078
22.8956 22.8807 21.82 21.8207 21.8257 21.8259
21.8542 21.8493 21.7858 21.7868 21.7911 21.7917
21.8181 21.8139 21.763 21.7645 21.7681 21.7691
21.7937 21.7902 21.7527 21.7546 21.7573 21.7589
21.7812 21.7786 21.9054 21.8999 21.9695 21.9631
22.019 22.045 22.0119 22.0377 21.8675 21.8626
21.9297 21.9239 21.9777 22.0029 21.9711 21.996
22.0691 22.0614 22.1295 22.1212 22.0261 22.0189
22.0845 22.0767 21.8413 21.8371 21.9015 21.8962
21.9475 21.9717 21.9415 21.9654 21.8274 21.824
21.8856 21.881 21.9296 21.9524 21.924 21.9467
21.9939 21.9873 22.0497 22.0425 21.9735 21.9673
22.0261 22.0193 21.756 21.7586 21.7603 21.7627
21.7827 21.7814 21.7739 21.7773 21.7778 21.7813
21.7992 21.7992 21.8043 21.8086 21.8086 21.8129
21.8321 21.8323 21.8425 21.8476 21.8478 21.8527
21.8749 21.8748 21.8282 21.8256 21.8842 21.8802
21.9257 21.9471 21.9207 21.9418 21.8438 21.842
21.8975 21.8939 21.9361 21.956 21.9316 21.9512
21.9667 21.9611 22.0158 22.0095 21.9742 21.9689
22.0193 22.0134 21.8753 21.8738 21.926 21.9228
21.9619 21.9802 21.9577 21.9758 21.9173 21.9162
21.9667 21.9638 22.0007 22.0178 21.9969 22.0138
21.9969 21.9921 22.0383 22.0329 22.0334 22.029
22.0717 22.0666 22.2336 22.2242 22.337 22.3266
22.1852 22.1762 22.2855 22.2755 22.4334 22.4221
22.5232 22.5111 22.3795 22.3686 22.4674 22.4557
22.1459 22.1375 22.2421 22.2326 22.1169 22.1089
22.2081 22.199 22.3329 22.3225 22.4183 22.407
22.2947 22.2847 22.3767 22.3659 22.6091 22.5963
22.688 22.6745 22.552 22.5396 22.63 22.6169
22.76 22.746 22.8336 22.8191 22.7015 22.6879
22.7749 22.7607 22.5009 22.4889 22.5775 22.5649
22.4566 22.4451 22.5312 22.5189 22.648 22.6348
22.7206 22.7069 22.6001 22.5872 22.6714 22.6579
22.1002 22.0927 22.1856 22.177 22.097 22.0899
22.1758 22.1676 22.2672 22.2576 22.3449 22.3346
22.2515 22.2424 22.3241 22.3142 22.1091 22.1024
22.1807 22.173 22.1359 22.1297 22.2002 22.193
22.2498 22.2412 22.3165 22.307 22.2622 22.2541
22.3224 22.3135 22.4212 22.4101 22.4929 22.4811
22.396 22.3853 22.4639 22.4525 22.5596 22.5472
22.6288 22.6158 22.5275 22.5155 22.5941 22.5815
22.3829 22.3727 22.4463 22.4354 22.3828 22.3731
22.4409 22.4306 22.5062 22.4946 22.5692 22.557
22.4963 22.4854 22.5551 22.5436 21.8838 21.8901
21.8902 21.8964 21.9236 21.923 21.9265 21.934
21.934 21.9412 21.972 21.9714 21.9692 21.9776
21.9772 21.9853 22.019 22.0181 22.0027 22.0084
22.0098 22.0152 22.0497 22.0465 21.9692 21.9677
22.0183 22.0155 22.0508 22.0672 22.0472 22.0634
22.0228 22.0211 22.0739 22.071 22.1061 22.122
22.1025 22.1183 22.0818 22.0777 22.1176 22.1129
22.136 22.132 22.1699 22.1654 22.074 22.0717
22.1272 22.1238 22.1596 22.1755 22.1556 22.1713
22.1043 22.0999 22.1575 22.152 22.1897 22.2055
22.1837 22.1994 22.1892 22.1848 22.2221 22.2174
22.2191 22.2128 22.2518 22.2451 22.1755 22.1698
22.2326 22.226 22.2225 22.2173 22.2733 22.2672
22.2874 22.28 22.3408 22.3326 22.3216 22.3147
22.3687 22.3613 22.2709 22.2656 22.3168 22.3109
22.2999 22.2927 22.3449 22.3371 22.3602 22.3538
22.4027 22.3957 22.3874 22.379 22.4288 22.4198
22.3949 22.386 22.4475 22.438 22.4169 22.4088
22.4643 22.4555 22.4982 22.488 22.5524 22.5416
22.5102 22.5009 22.5598 22.55 22.4462 22.4387
22.4893 22.4813 22.4711 22.4617 22.5128 22.5029
22.5313 22.5228 22.577 22.568 22.5533 22.5431
22.5974 22.5868 23.6325 23.6339 23.6177 23.6185
23.6362 23.62 23.6396 23.623 23.6304 23.6318
23.6149 23.6157 23.6339 23.6173 23.6277 23.6294
23.6122 23.6132 23.6321 23.6153 23.6371 23.6203
23.6359 23.6189 23.6454 23.6289 23.665 23.648
23.643 23.6264 23.6414 23.6248 23.6631 23.646
23.6618 23.6447 23.6235 23.6261 23.6086 23.6101
23.63 23.6131 23.6181 23.6219 23.604 23.6062
23.6275 23.6106 23.6352 23.6181 23.6347 23.6175
23.6119 23.6176 23.5992 23.6025 23.6257 23.6087
23.6077 23.6158 23.5967 23.6009 23.626 23.6086
23.6348 23.6175 23.6359 23.6185 23.6406 23.6239
23.6396 23.623 23.6611 23.644 23.6598 23.6428
23.6391 23.6226 23.6395 23.6231 23.6587 23.6419
23.6584 23.6419 23.6973 23.6796 23.7376 23.7194
23.6965 23.6786 23.6964 23.6785 23.738 23.7196
23.7396 23.7212 23.783 23.7645 23.8278 23.809
23.7848 23.766 23.7887 23.7697 23.8309 23.8117
23.8367 23.8174 23.6964 23.6785 23.6956 23.6779
23.7412 23.7228 23.7416 23.7234 23.6946 23.6772
23.6944 23.6772 23.7417 23.7236 23.7421 23.7242
23.7923 23.7733 23.7946 23.7757 23.8425 23.8231
23.8467 23.8273 23.7961 23.7773 23.7975 23.7789
23.8498 23.8305 23.8522 23.8331 23.8705 23.8514
23.91 23.8908 23.8747 23.8553 23.8824 23.8628
23.9151 23.8956 23.9245 23.9047 23.9463 23.9271
23.9793 23.96 23.9522 23.9325 23.9629 23.9429
23.9857 23.966 23.9974 23.9774 23.8903 23.8705
23.8962 23.8765 23.934 23.9141 23.9416 23.9216
23.9008 23.8812 23.9042 23.8847 23.9474 23.9275
23.9516 23.9317 23.9738 23.9537 23.9827 23.9625
24.0095 23.9892 24.0193 23.999 23.9896 23.9695
23.9945 23.9744 24.0271 24.0068 24.0325 24.0122
24.0091 23.9897 24.0353 24.016 24.0159 23.9961
24.0282 24.0082 24.0424 24.0226 24.0552 24.0352
24.057 24.0377 24.0742 24.0549 24.0642 24.0445
24.0773 24.0573 24.0815 24.0617 24.0948 24.0747
24.0411 24.0208 24.0517 24.0314 24.0687 24.0484
24.0799 24.0594 24.0602 24.0398 24.066 24.0456
24.0888 24.0684 24.0949 24.0745 24.0911 24.0708
24.1027 24.0823 24.1088 24.0885 24.1206 24.1001
24.112 24.0915 24.1183 24.0978 24.1301 24.1096
24.1365 24.116 24.0874 24.0681 24.096 24.0767
24.0947 24.075 24.108 24.088 24.1033 24.0836
24.1167 24.0967 24.0988 24.0796 24.098 24.0789
24.1062 24.0866 24.1197 24.0998 24.1055 24.0859
24.1192 24.0993 24.1222 24.1019 24.1342 24.1138
24.131 24.1108 24.1431 24.1228 24.1439 24.1234
24.1504 24.1299 24.153 24.1326 24.1597 24.1392
24.1341 24.114 24.1465 24.1262 24.1338 24.1137
24.1464 24.1261 24.1565 24.1362 24.1633 24.1428
24.1566 24.1362 24.1634 24.143 24.0937 24.0746
24.085 24.0659 24.0723 24.0532 24.0567 24.0377
24.1014 24.0819 24.0932 24.0737 24.1154 24.0956
24.1078 24.088 24.0812 24.0617 24.0668 24.0474
24.0969 24.077 24.0838 24.064 24.0413 24.0223
24.0245 24.0056 24.053 24.0336 24.0715 24.0517
24.0382 24.0189 24.0585 24.0388 24.1304 24.1103
24.1233 24.1033 24.1432 24.123 24.1365 24.1163
24.1131 24.0931 24.101 24.0811 24.1269 24.1067
24.1154 24.0953 24.1536 24.1333 24.1473 24.127
24.1605 24.1401 24.1543 24.134 24.138 24.1177
24.1269 24.1067 24.1452 24.1249 24.1343 24.1139
24.0897 24.0697 24.1046 24.0845 24.0778 24.0578
24.0933 24.0732 24.1164 24.0961 24.1238 24.1035
24.1053 24.085 24.1126 24.0923 23.9842 23.9653
23.817 23.7983 23.7939 23.7835 23.7753 23.7649
23.8989 23.8799 23.8628 23.8489 23.8439 23.83
24.0047 23.9854 24.0298 24.0101 23.9473 23.928
23.9132 23.8995 23.894 23.8803 23.9832 23.9636
23.9519 23.939 23.9324 23.9195 23.7543 23.7358
23.8138 23.795 23.6994 23.6811 23.7565 23.7379
23.8643 23.8453 23.9053 23.886 23.8068 23.7879
23.849 23.8299 24.0515 24.0317 24.0682 24.0482
24.0093 23.9895 23.9798 23.9676 23.9601 23.9479
24.0279 24.0079 23.9995 23.9878 23.9797 23.968
24.0806 24.0604 24.0876 24.0673 24.0402 24.0202
24.0131 24.0019 23.9932 23.982 24.0445 24.0244
24.0195 24.0092 23.9995 23.9892 23.9353 23.9158
23.9566 23.937 23.8806 23.8613 23.9037 23.8843
23.9721 23.9524 23.9816 23.9618 23.9214 23.9019
23.9338 23.9142 23.645 23.627 23.7019 23.6835
23.5943 23.5764 23.6515 23.6333 23.7526 23.734
23.7959 23.7771 23.703 23.6845 23.7474 23.7286
23.5386 23.5209 23.5967 23.5787 23.4783 23.4608
23.5376 23.5198 23.6492 23.6309 23.6949 23.6764
23.5915 23.5734 23.6388 23.6204 23.8289 23.8098
23.8535 23.8344 23.7816 23.7627 23.8076 23.7886
23.8731 23.8538 23.8878 23.8685 23.8288 23.8097
23.8454 23.8262 23.7306 23.7119 23.7582 23.7394
23.6762 23.6577 23.7056 23.6869 23.7812 23.7623
23.7997 23.7807 23.7305 23.7117 23.7511 23.7323
24.0351 24.015 24.0173 24.0091 23.9974 23.9891
24.028 24.008 24.0129 24.0059 23.9931 23.986
24.0203 24.0003 24.0065 24 23.9867 23.9802
24.0118 23.992 23.9988 23.9927 23.9791 23.973
23.9857 23.966 23.9854 23.9657 23.942 23.9224
23.9455 23.9261 23.9813 23.9617 23.975 23.9555
23.9445 23.9251 23.9405 23.9211 24.0015 23.982
23.9873 23.9681 23.9892 23.9834 23.9697 23.9639
23.9757 23.9703 23.9566 23.9511 23.9715 23.9525
23.9583 23.9394 23.9606 23.9556 23.9416 23.9365
23.948 23.9432 23.9291 23.9242 23.9503 23.9425
23.9315 23.9238 23.9241 23.9059 23.9403 23.9327
23.9356 23.9282 23.9215 23.9141 23.9168 23.9095
23.915 23.9107 23.8967 23.8924 23.8949 23.8771
23.8867 23.8829 23.8688 23.8649 23.9667 23.9474
23.9546 23.9356 23.9409 23.9219 23.9292 23.9104
23.9342 23.915 23.9244 23.9054 23.9129 23.894
23.9028 23.884 23.9221 23.915 23.9034 23.8964
23.8984 23.8802 23.8719 23.8539 23.8966 23.8903
23.8779 23.8717 23.8756 23.8574 23.8519 23.8339
23.8988 23.8795 23.9054 23.8861 23.8586 23.8394
23.8678 23.8486 23.9072 23.8879 23.9053 23.886
23.872 23.8528 23.872 23.8528 23.8153 23.7962
23.8271 23.808 23.7691 23.7501 23.7836 23.7646
23.8338 23.8147 23.8358 23.8167 23.7929 23.7739
23.7969 23.7778 23.901 23.8819 23.8935 23.8746
23.8842 23.8654 23.8759 23.8571 23.8695 23.8505
23.864 23.8452 23.8569 23.8381 23.8501 23.8313
23.8705 23.8651 23.8518 23.8465 23.8521 23.8339
23.8312 23.8132 23.8456 23.8409 23.8269 23.8223
23.8294 23.8112 23.811 23.7929 23.8352 23.8162
23.8319 23.8131 23.827 23.8083 23.8218 23.8031
23.7982 23.7793 23.7972 23.7785 23.7946 23.7759
23.7911 23.7724 23.8181 23.8142 23.7995 23.7956
23.8045 23.7862 23.7886 23.7706 23.7883 23.7852
23.7697 23.7666 23.7772 23.7589 23.7641 23.746
23.8634 23.8462 23.8561 23.8528 23.8389 23.8354
23.8357 23.8195 23.8212 23.8138 23.8055 23.7981
23.8292 23.8262 23.8129 23.8098 23.8152 23.8079
23.8124 23.8052 23.7993 23.7921 23.7964 23.7894
23.8074 23.792 23.7916 23.7769 23.8016 23.799
23.7862 23.7835 23.7862 23.7838 23.7714 23.7689
23.785 23.7711 23.7795 23.7772 23.7654 23.763
23.8431 23.8258 23.8177 23.8012 23.8044 23.7976
23.7884 23.7817 23.826 23.8086 23.8029 23.7864
23.7909 23.7847 23.7747 23.7687 23.7917 23.776
23.7771 23.762 23.7709 23.7566 23.7794 23.7636
23.7664 23.7511 23.7616 23.7471 23.8082 23.7907
23.7874 23.7708 23.7767 23.7712 23.7605 23.7551
23.7905 23.773 23.7719 23.7552 23.7625 23.7576
23.7461 23.7413 23.7665 23.7506 23.7549 23.7396
23.7514 23.7368 23.7534 23.7373 23.7429 23.7274
23.7406 23.7258 23.7708 23.7532 23.7546 23.7378
23.7464 23.7422 23.7299 23.7258 23.749 23.7314
23.7352 23.7183 23.7283 23.7247 23.7117 23.7082
23.7385 23.7223 23.7294 23.7137 23.7282 23.7132
23.7216 23.7053 23.7139 23.6981 23.714 23.6989
23.417 23.3997 23.4776 23.46 23.3582 23.3412
23.4202 23.4028 23.5331 23.5152 23.5822 23.564
23.4773 23.4596 23.5282 23.5102 23.3023 23.2855
23.3657 23.3485 23.2387 23.2221 23.3037 23.2867
23.4244 23.4068 23.477 23.4592 23.3641 23.3468
23.4187 23.4011 23.6215 23.6031 23.6527 23.6342
23.5693 23.5511 23.6023 23.584 23.6796 23.661
23.7023 23.6835 23.6311 23.6126 23.6557 23.6371
23.5199 23.5018 23.5545 23.5363 23.4635 23.4456
23.5 23.4819 23.585 23.5666 23.6114 23.5929
23.5323 23.5141 23.5607 23.5423 23.1688 23.1525
23.2354 23.2188 23.1003 23.0843 23.1685 23.152
23.2978 23.2807 23.3544 23.337 23.2325 23.2157
23.291 23.2738 23.0338 23.0182 23.1033 23.0871
22.9694 22.954 23.0399 23.024 23.1688 23.1522
23.2288 23.2119 23.1065 23.0902 23.1679 23.1512
23.4012 23.3835 23.4396 23.4217 23.3396 23.3221
23.3796 23.3619 23.4739 23.4559 23.5043 23.4861
23.4157 23.3978 23.4479 23.4298 23.279 23.2617
23.3205 23.3031 23.2193 23.2022 23.2621 23.2448
23.3581 23.3404 23.3919 23.374 23.3009 23.2834
23.336 23.3183 23.7225 23.7037 23.7397 23.7208
23.6781 23.6594 23.6976 23.6789 23.7514 23.7325
23.7574 23.7385 23.7117 23.6928 23.7194 23.7005
23.6358 23.6172 23.6575 23.6388 23.5872 23.5688
23.6113 23.5927 23.6736 23.6548 23.6829 23.6641
23.6296 23.6109 23.6407 23.6219 23.7607 23.7418
23.7618 23.7431 23.7614 23.7428 23.7595 23.7408
23.7244 23.7056 23.7276 23.7089 23.7292 23.7105
23.7287 23.71 23.7576 23.7553 23.739 23.7367
23.749 23.7307 23.7385 23.7204 23.7276 23.726
23.709 23.7074 23.7212 23.7029 23.7131 23.695
23.6895 23.6707 23.6944 23.6758 23.6978 23.6792
23.6987 23.68 23.6489 23.6302 23.6558 23.6372
23.6612 23.6425 23.6634 23.6447 23.6982 23.6973
23.6796 23.6787 23.6939 23.6756 23.688 23.6699
23.6637 23.6635 23.6451 23.6449 23.6616 23.6433
23.6581 23.64 23.533 23.5147 23.5595 23.541
23.4786 23.4604 23.5073 23.4889 23.58 23.5614
23.5929 23.5743 23.5299 23.5114 23.5444 23.5258
23.4244 23.4063 23.4549 23.4367 23.37 23.3521
23.4023 23.3842 23.4794 23.461 23.4954 23.4769
23.4284 23.4101 23.4457 23.4273 23.6028 23.5842
23.6117 23.5932 23.6191 23.6005 23.6228 23.6041
23.5559 23.5374 23.5666 23.5481 23.5758 23.5573
23.5808 23.5623 23.6239 23.6243 23.6053 23.6058
23.6241 23.6058 23.623 23.6049 23.5827 23.5838
23.5642 23.5653 23.585 23.5668 23.5863 23.5682
23.5083 23.4899 23.5206 23.5022 23.5315 23.5131
23.5378 23.5193 23.4599 23.4415 23.4737 23.4554
23.4862 23.4679 23.4936 23.4752 23.5404 23.5421
23.5219 23.5237 23.5447 23.5265 23.5481 23.53
23.4968 23.4991 23.4785 23.4808 23.503 23.4849
23.5084 23.4904 22.9079 22.8928 22.9789 22.9634
22.8491 22.8344 22.9204 22.9052 23.0464 23.0304
23.1087 23.0923 22.9884 22.9726 23.0513 23.0351
22.7944 22.7801 22.8655 22.8506 22.7441 22.7301
22.8145 22.8 22.9335 22.9181 22.9967 22.9808
22.8821 22.867 22.9451 22.9296 23.1611 23.1443
23.2048 23.1878 23.1044 23.0878 23.1488 23.132
23.2448 23.2275 23.2809 23.2634 23.1895 23.1724
23.2265 23.2092 23.0501 23.0339 23.095 23.0784
22.9986 22.9826 23.0436 23.0273 23.1362 23.1194
23.1738 23.1567 23.085 23.0685 23.123 23.1062
22.7 22.6864 22.7691 22.7549 22.6628 22.6496
22.73 22.7162 22.8357 22.821 22.898 22.8829
22.7951 22.7807 22.8562 22.8414 22.6347 22.622
22.6993 22.6859 22.6169 22.6047 22.6781 22.6654
22.7621 22.7483 22.8215 22.8072 22.7382 22.7248
22.7953 22.7815 22.9511 22.9355 22.996 22.98
22.9086 22.8933 22.9529 22.9373 23.0374 23.0212
23.0755 23.059 22.9941 22.9782 23.032 23.0159
22.8726 22.8578 22.9161 22.9009 22.8447 22.8304
22.8869 22.8722 22.9566 22.9411 22.9942 22.9784
22.9264 22.9114 22.9634 22.948 23.3162 23.2984
23.3498 23.3319 23.2627 23.2452 23.2976 23.2799
23.3773 23.3592 23.3958 23.3776 23.3263 23.3084
23.3459 23.3278 23.2108 23.1935 23.2466 23.2291
23.1605 23.1435 23.1971 23.1798 23.2763 23.2586
23.2968 23.2789 23.2277 23.2102 23.2489 23.2313
23.4112 23.393 23.4264 23.4082 23.4403 23.4221
23.4488 23.4305 23.3622 23.3442 23.3787 23.3607
23.394 23.3759 23.4035 23.3853 23.4526 23.4554
23.4343 23.4372 23.4604 23.4424 23.4678 23.4499
23.4078 23.4112 23.3897 23.3931 23.4173 23.3994
23.4265 23.4087 23.314 23.2962 23.3316 23.3138
23.3481 23.3302 23.3585 23.3406 23.267 23.2493
23.2856 23.268 23.3032 23.2855 23.3145 23.2967
23.3634 23.3673 23.3455 23.3493 23.3745 23.3568
23.3854 23.3678 23.3199 23.3242 23.3021 23.3065
23.3324 23.3149 23.345 23.3276 23.1133 23.0966
23.1504 23.1334 23.0699 23.0535 23.1073 23.0906
23.1817 23.1645 23.2036 23.1862 23.1391 23.1222
23.1616 23.1445 23.0319 23.0159 23.0694 23.0531
23.0006 22.985 23.0381 23.0222 23.1016 23.0851
23.1246 23.1079 23.0705 23.0544 23.0939 23.0776
23.2224 23.205 23.242 23.2246 23.2606 23.2432
23.2728 23.2552 23.181 23.1639 23.2015 23.1844
23.2212 23.204 23.2341 23.2169 23.2786 23.2834
23.2611 23.2659 23.2926 23.2753 23.3068 23.2896
23.2404 23.2456 23.2231 23.2283 23.2557 23.2387
23.2716 23.2545 23.1447 23.128 23.166 23.1492
23.1866 23.1698 23.2004 23.1834 23.1145 23.0982
23.1366 23.1203 23.1582 23.1417 23.1726 23.156
23.2071 23.2127 23.1901 23.1957 23.2237 23.207
23.2411 23.2244 23.1798 23.1857 23.1632 23.1692
23.1977 23.1813 23.2165 23.2001 23.7261 23.7085
23.7145 23.6975 23.7089 23.706 23.6922 23.6893
23.7032 23.6855 23.6937 23.6766 23.6891 23.6868
23.6723 23.6701 23.7034 23.687 23.697 23.6811
23.6984 23.6832 23.6848 23.6683 23.6796 23.6636
23.6822 23.6668 23.6803 23.6625 23.6726 23.6555
23.6691 23.6674 23.6523 23.6506 23.6528 23.635
23.6472 23.63 23.6448 23.6436 23.6279 23.6268
23.6658 23.6492 23.6618 23.6456 23.6654 23.6499
23.6425 23.6259 23.6397 23.6235 23.6446 23.629
23.6202 23.6024 23.6167 23.5995 23.6155 23.615
23.5986 23.5981 23.5859 23.5681 23.5844 23.5672
23.5843 23.5843 23.5673 23.5674 23.6144 23.5977
23.613 23.5967 23.6191 23.6034 23.5843 23.5675
23.5841 23.5677 23.5915 23.5758 23.5499 23.5321
23.5503 23.5331 23.5513 23.5519 23.5343 23.5349
23.5123 23.4946 23.5146 23.4974 23.5166 23.5177
23.4996 23.5008 23.5523 23.5355 23.5533 23.537
23.5619 23.5462 23.5186 23.5019 23.5208 23.5044
23.5306 23.5148 23.4737 23.4561 23.4777 23.4606
23.4807 23.4823 23.4638 23.4655 23.4343 23.4168
23.44 23.423 23.4439 23.4461 23.4271 23.4293
23.4837 23.467 23.487 23.4707 23.498 23.4823
23.4479 23.4313 23.4522 23.436 23.4644 23.4488
23.3951 23.3777 23.4024 23.3855 23.4072 23.4099
23.3905 23.3932 23.3565 23.3393 23.3654 23.3487
23.3711 23.3743 23.3546 23.3578 23.4121 23.3956
23.4175 23.4014 23.4309 23.4154 23.377 23.3606
23.3834 23.3674 23.3979 23.3826 23.32 23.303
23.3305 23.3139 23.3371 23.3407 23.3207 23.3244
23.2864 23.2696 23.2984 23.2821 23.3059 23.3101
23.2897 23.2939 23.3438 23.3276 23.3513 23.3355
23.367 23.3519 23.3136 23.2975 23.3221 23.3064
23.3389 23.3239 23.2576 23.2411 23.2711 23.2551
23.2795 23.284 23.2635 23.2682 23.2346 23.2184
23.2495 23.2337 23.2586 23.2637 23.243 23.248
23.2879 23.2722 23.2975 23.2821 23.3156 23.3009
23.268 23.2524 23.2785 23.2633 23.2977 23.2832
22.6098 22.5984 22.6672 22.6552 22.6129 22.6025
22.6664 22.6554 22.724 22.7114 22.7784 22.7653
22.7197 22.7081 22.7711 22.759 22.6261 22.6167
22.6759 22.666 22.6448 22.6337 22.6928 22.6814
22.7258 22.7153 22.7742 22.7633 22.7409 22.729
22.7877 22.7754 22.8257 22.8121 22.8664 22.8524
22.8161 22.8035 22.8551 22.8421 22.9047 22.8904
22.9407 22.9261 22.892 22.8787 22.9271 22.9133
22.817 22.8055 22.8541 22.8423 22.8289 22.8161
22.8649 22.8518 22.8896 22.8774 22.9236 22.911
22.8993 22.8858 22.9323 22.9185 22.9774 22.9624
23.0147 22.9994 22.963 22.949 23.0001 22.9857
23.0474 23.0319 23.0713 23.0555 23.0332 23.0184
23.0576 23.0426 22.9587 22.9458 22.9955 22.9822
22.9666 22.9524 23.003 22.9885 23.029 23.0153
23.0542 23.0402 23.0366 23.0216 23.0625 23.0473
23.0925 23.0767 23.1154 23.0996 23.1379 23.1219
23.1531 23.137 23.0794 23.0643 23.1033 23.0881
23.1268 23.1114 23.1427 23.1272 23.1607 23.1671
23.1446 23.1509 23.1799 23.1639 23.2 23.184
23.1507 23.1574 23.1351 23.1418 23.171 23.1555
23.1921 23.1765 23.0769 23.0628 23.1019 23.0876
23.1263 23.1118 23.1431 23.1283 23.086 23.0706
23.1116 23.096 23.1364 23.1206 23.1536 23.1375
23.1514 23.1585 23.1366 23.1436 23.1728 23.158
23.1943 23.1794 23.1622 23.1695 23.146 23.1532
23.1841 23.1678 23.2054 23.1889 23.2194 23.2036
23.2355 23.22 23.2453 23.2507 23.23 23.2354
23.2126 23.1971 23.2295 23.2142 23.2397 23.2454
23.2246 23.2302 23.2554 23.2401 23.2668 23.2519
23.2873 23.273 23.2502 23.2351 23.2622 23.2474
23.2836 23.2695 23.215 23.1999 23.2319 23.2169
23.2421 23.2477 23.2272 23.2327 23.2252 23.2085
23.2404 23.2238 23.2494 23.2544 23.2327 23.2377
23.2525 23.2377 23.2646 23.25 23.2875 23.2735
23.2587 23.242 23.2695 23.2529 23.2925 23.276
</DataArray>
<DataArray type="Float32" Name="Pressure (Pa)" format="ascii" RangeMin="0" RangeMax="0">
0 0 0 0 0 0
0 0 0 0 0 0
0 0 0 0 0 0
0 0 0 0 0 0
0 0 0 0 0 0
0 0 0 0 0 0
0 0 0 0 0 0
0 0 0 0 0 0
0 0 0 0 0 0
0 0 0 0 0 0
0 0 0 0 0 0
0 0 0 0 0 0
0 0 0 0 0 0
0 0 0 0 0 0
0 0 0 0 0 0
0 0 0 0 0 0
0 0 0 0 0 0
0 0 0 0 0 0
0 0 0 0 0 0
0 0 0 0 0 0
0 0 0 0 0 0
0 0 0 0 0 0
0 0 0 0 0 0
0 0 0 0 0 0
0 0 0 0 0 0
0 0 0 0 0 0
0 0 0 0 0 0
0 0 0 0 0 0
0 0 0 0 0 0
0 0 0 0 0 0
0 0 0 0 0 0
0 0 0 0 0 0
0 0 0 0 0 0
0 0 0 0 0 0
0 0 0 0 0 0
0 0 0 0 0 0
0 0 0 0 0 0
0 0 0 0 0 0
0 0 0 0 0 0
0 0 0 0 0 0
0 0 0 0 0 0
0 0 0 0 0 0
0 0 0 0 0 0
0 0 0 0 0 0
0 0 0 0 0 0
0 0 0 0 0 0
0 0 0 0 0 0
0 0 0 0 0 0
0 0 0 0 0 0
0 0 0 0 0 0
0 0 0 0 0 0
0 0 0 0 0 0
0 0 0 0 0 0
0 0 0 0 0 0
0 0 0 0 0 0
0 0 0 0 0 0
0 0 0 0 0 0
0 0 0 0 0 0
0 0 0 0 0 0
0 0 0 0 0 0
0 0 0 0 0 0
0 0 0 0 0 0
0 0 0 0 0 0
0 0 0 0 0 0
0 0 0 0 0 0
0 0 0 0 0 0
0 0 0 0 0 0
0 0 0 0 0 0
0 0 0 0 0 0
0 0 0 0 0 0
0 0 0 0 0 0
0 0 0 0 0 0
0 0 0 0 0 0
0 0 0 0 0 0
0 0 0 0 0 0
0 0 0 0 0 0
0 0 0 0 0 0
0 0 0 0 0 0
0 0 0 0 0 0
0 0 0 0 0 0
0 0 0 0 0 0
0 0 0 0 0 0
0 0 0 0 0 0
0 0 0 0 0 0
0 0 0 0 0 0
0 0 0 0 0 0
0 0 0 0 0 0
0 0 0 0 0 0
0 0 0 0 0 0
0 0 0 0 0 0
0 0 0 0 0 0
0 0 0 0 0 0
0 0 0 0 0 0
0 0 0 0 0 0
0 0 0 0 0 0
0 0 0 0 0 0
0 0 0 0 0 0
0 0 0 0 0 0
0 0 0 0 0 0
0 0 0 0 0 0
0 0 0 0 0 0
0 0 0 0 0 0
0 0 0 0 0 0
0 0 0 0 0 0
0 0 0 0 0 0
0 0 0 0 0 0
0 0 0 0 0 0
0 0 0 0 0 0
0 0 0 0 0 0
0 0 0 0 0 0
0 0 0 0 0 0
0 0 0 0 0 0
0 0 0 0 0 0
0 0 0 0 0 0
0 0 0 0 0 0
0 0 0 0 0 0
0 0 0 0 0 0
0 0 0 0 0 0
0 0 0 0 0 0
0 0 0 0 0 0
0 0 0 0 0 0
0 0 0 0 0 0
0 0 0 0 0 0
0 0 0 0 0 0
0 0 0 0 0 0
0 0 0 0 0 0
0 0 0 0 0 0
0 0 0 0 0 0
0 0 0 0 0 0
0 0 0 0 0 0
0 0 0 0 0 0
0 0 0 0 0 0
0 0 0 0 0 0
0 0 0 0 0 0
0 0 0 0 0 0
0 0 0 0 0 0
0 0 0 0 0 0
0 0 0 0 0 0
0 0 0 0 0 0
0 0 0 0 0 0
0 0 0 0 0 0
0 0 0 0 0 0
0 0 0 0 0 0
0 0 0 0 0 0
0 0 0 0 0 0
0 0 0 0 0 0
0 0 0 0 0 0
0 0 0 0 0 0
0 0 0 0 0 0
0 0 0 0 0 0
0 0 0 0 0 0
0 0 0 0 0 0
0 0 0 0 0 0
0 0 0 0 0 0
0 0 0 0 0 0
0 0 0 0 0 0
0 0 0 0 0 0
0 0 0 0 0 0
0 0 0 0 0 0
0 0 0 0 0 0
0 0 0 0 0 0
0 0 0 0 0 0
0 0 0 0 0 0
0 0 0 0 0 0
0 0 0 0 0 0
0 0 0 0 0 0
0 0 0 0 0 0
0 0 0 0 0 0
0 0 0 0 0 0
0 0 0 0 0 0
0 0 0 0 0 0
0 0 0 0 0 0
0 0 0 0 0 0
0 0 0 0 0 0
0 0 0 0 0 0
0 0 0 0 0 0
0 0 0 0 0 0
0 0 0 0 0 0
0 0 0 0 0 0
0 0 0 0 0 0
0 0 0 0 0 0
0 0 0 0 0 0
0 0 0 0 0 0
0 0 0 0 0 0
0 0 0 0 0 0
0 0 0 0 0 0
0 0 0 0 0 0
0 0 0 0 0 0
0 0 0 0 0 0
0 0 0 0 0 0
0 0 0 0 0 0
0 0 0 0 0 0
0 0 0 0 0 0
0 0 0 0 0 0
0 0 0 0 0 0
0 0 0 0 0 0
0 0 0 0 0 0
0 0 0 0 0 0
0 0 0 0 0 0
0 0 0 0 0 0
0 0 0 0 0 0
0 0 0 0 0 0
0 0 0 0 0 0
0 0 0 0 0 0
0 0 0 0 0 0
0 0 0 0 0 0
0 0 0 0 0 0
0 0 0 0 0 0
0 0 0 0 0 0
0 0 0 0 0 0
0 0 0 0 0 0
0 0 0 0 0 0
0 0 0 0 0 0
0 0 0 0 0 0
0 0 0 0 0 0
0 0 0 0 0 0
0 0 0 0 0 0
0 0 0 0 0 0
0 0 0 0 0 0
0 0 0 0 0 0
0 0 0 0 0 0
0 0 0 0 0 0
0 0 0 0 0 0
0 0 0 0 0 0
0 0 0 0 0 0
0 0 0 0 0 0
0 0 0 0 0 0
0 0 0 0 0 0
0 0 0 0 0 0
0 0 0 0 0 0
0 0 0 0 0 0
0 0 0 0 0 0
0 0 0 0 0 0
0 0 0 0 0 0
0 0 0 0 0 0
0 0 0 0 0 0
0 0 0 0 0 0
0 0 0 0 0 0
0 0 0 0 0 0
0 0 0 0 0 0
0 0 0 0 0 0
0 0 0 0 0 0
0 0 0 0 0 0
0 0 0 0 0 0
0 0 0 0 0 0
0 0 0 0 0 0
0 0 0 0 0 0
0 0 0 0 0 0
0 0 0 0 0 0
0 0 0 0 0 0
0 0 0 0 0 0
0 0 0 0 0 0
0 0 0 0 0 0
0 0 0 0 0 0
0 0 0 0 0 0
0 0 0 0 0 0
0 0 0 0 0 0
0 0 0 0 0 0
0 0 0 0 0 0
0 0 0 0 0 0
0 0 0 0 0 0
0 0 0 0 0 0
0 0 0 0 0 0
0 0 0 0 0 0
0 0 0 0 0 0
0 0 0 0 0 0
0 0 0 0 0 0
0 0 0 0 0 0
0 0 0 0 0 0
0 0 0 0 0 0
0 0 0 0 0 0
0 0 0 0 0 0
0 0 0 0 0 0
0 0 0 0 0 0
0 0 0 0 0 0
0 0 0 0 0 0
0 0 0 0 0 0
0 0 0 0 0 0
0 0 0 0 0 0
0 0 0 0 0 0
0 0 0 0 0 0
0 0 0 0 0 0
0 0 0 0 0 0
0 0 0 0 0 0
0 0 0 0 0 0
0 0 0 0 0 0
0 0 0 0 0 0
0 0 0 0 0 0
0 0 0 0 0 0
0 0 0 0 0 0
0 0 0 0 0 0
0 0 0 0 0 0
0 0 0 0 0 0
0 0 0 0 0 0
0 0 0 0 0 0
0 0 0 0 0 0
0 0 0 0 0 0
0 0 0 0 0 0
0 0 0 0 0 0
0 0 0 0 0 0
0 0 0 0 0 0
0 0 0 0 0 0
0 0 0 0 0 0
0 0 0 0 0 0
0 0 0 0 0 0
0 0 0 0 0 0
0 0 0 0 0 0
0 0 0 0 0 0
0 0 0 0 0 0
0 0 0 0 0 0
0 0 0 0 0 0
0 0 0 0 0 0
0 0 0 0 0 0
0 0 0 0 0 0
0 0 0 0 0 0
0 0 0 0 0 0
0 0 0 0 0 0
0 0 0 0 0 0
0 0 0 0 0 0
0 0 0 0 0 0
0 0 0 0 0 0
0 0 0 0 0 0
0 0 0 0 0 0
0 0 0 0 0 0
0 0 0 0 0 0
0 0 0 0 0 0
0 0 0 0 0 0
0 0 0 0 0 0
0 0 0 0 0 0
0 0 0 0 0 0
0 0 0 0 0 0
0 0 0 0 0 0
0 0 0 0 0 0
0 0 0 0 0 0
0 0 0 0 0 0
0 0 0 0 0 0
0 0 0 0 0 0
0 0 0 0 0 0
0 0 0 0 0 0
0 0 0 0 0 0
0 0 0 0 0 0
0 0 0 0 0 0
0 0 0 0 0 0
0 0 0 0 0 0
0 0 0 0 0 0
0 0 0 0 0 0
0 0 0 0 0 0
0 0 0 0 0 0
0 0 0 0 0 0
0 0 0 0 0 0
0 0 0 0 0 0
0 0 0 0 0 0
0 0 0 0 0 0
0 0 0 0 0 0
0 0 0 0 0 0
0 0 0 0 0 0
0 0 0 0 0 0
0 0 0 0 0 0
0 0 0 0 0 0
0 0 0 0 0 0
0 0 0 0 0 0
0 0 0 0 0 0
0 0 0 0 0 0
0 0 0 0 0 0
0 0 0 0 0 0
0 0 0 0 0 0
0 0 0 0 0 0
0 0 0 0 0 0
0 0 0 0 0 0
0 0 0 0 0 0
0 0 0 0 0 0
0 0 0 0 0 0
0 0 0 0 0 0
0 0 0 0 0 0
0 0 0 0 0 0
0 0 0 0 0 0
0 0 0 0 0 0
0 0 0 0 0 0
0 0 0 0 0 0
0 0 0 0 0 0
0 0 0 0 0 0
0 0 0 0 0 0
0 0 0 0 0 0
0 0 0 0 0 0
0 0 0 0 0 0
0 0 0 0 0 0
0 0 0 0 0 0
0 0 0 0 0 0
0 0 0 0 0 0
0 0 0 0 0 0
0 0 0 0 0 0
0 0 0 0 0 0
0 0 0 0 0 0
0 0 0 0 0 0
0 0 0 0 0 0
0 0 0 0 0 0
0 0 0 0 0 0
0 0 0 0 0 0
0 0 0 0 0 0
0 0 0 0 0 0
0 0 0 0 0 0
0 0 0 0 0 0
0 0 0 0 0 0
0 0 0 0 0 0
0 0 0 0 0 0
0 0 0 0 0 0
0 0 0 0 0 0
0 0 0 0 0 0
0 0 0 0 0 0
0 0 0 0 0 0
0 0 0 0 0 0
0 0 0 0 0 0
0 0 0 0 0 0
0 0 0 0 0 0
0 0 0 0 0 0
0 0 0 0 0 0
0 0 0 0 0 0
0 0 0 0 0 0
0 0 0 0 0 0
0 0 0 0 0 0
0 0 0 0 0 0
0 0 0 0 0 0
0 0 0 0 0 0
0 0 0 0 0 0
0 0 0 0 0 0
0 0 0 0 0 0
0 0 0 0 0 0
0 0 0 0 0 0
0 0 0 0 0 0
0 0 0 0 0 0
0 0 0 0 0 0
0 0 0 0 0 0
0 0 0 0 0 0
0 0 0 0 0 0
0 0 0 0 0 0
0 0 0 0 0 0
0 0 0 0 0 0
0 0 0 0 0 0
0 0 0 0 0 0
0 0 0 0 0 0
0 0 0 0 0 0
0 0 0 0 0 0
0 0 0 0 0 0
0 0 0 0 0 0
0 0 0 0 0 0
0 0 0 0 0 0
0 0 0 0 0 0
0 0 0 0 0 0
0 0 0 0 0 0
0 0 0 0 0 0
0 0 0 0 0 0
0 0 0 0 0 0
0 0 0 0 0 0
0 0 0 0 0 0
0 0 0 0 0 0
0 0 0 0 0 0
0 0 0 0 0 0
0 0 0 0 0 0
0 0 0 0 0 0
0 0 0 0 0 0
0 0 0 0 0 0
0 0 0 0 0 0
0 0 0 0 0 0
0 0 0 0 0 0
0 0 0 0 0 0
0 0 0 0 0 0
0 0 0 0 0 0
0 0 0 0 0 0
0 0 0 0 0 0
0 0 0 0 0 0
0 0 0 0 0 0
0 0 0 0 0 0
0 0 0 0 0 0
0 0 0 0 0 0
0 0 0 0 0 0
0 0 0 0 0 0
0 0 0 0 0 0
0 0 0 0 0 0
0 0 0 0 0 0
0 0 0 0 0 0
0 0 0 0 0 0
0 0 0 0 0 0
0 0 0 0 0 0
0 0 0 0 0 0
0 0 0 0 0 0
0 0 0 0 0 0
0 0 0 0 0 0
0 0 0 0 0 0
0 0 0 0 0 0
0 0 0 0 0 0
0 0 0 0 0 0
0 0 0 0 0 0
0 0 0 0 0 0
</DataArray>
<DataArray type="Float32" Name="Velocity (m/s)" NumberOfComponents="3" format= "ascii" RangeMin="0" RangeMax="0">
0 0 0 0 0 0 
0 0 0 0 0 0 
0 0 0 0 0 0 
0 0 0 0 0 0 
0 0 0 0 0 0 
0 0 0 0 0 0 
0 0 0 0 0 0 
0 0 0 0 0 0 
0 0 0 0 0 0 
0 0 0 0 0 0 
0 0 0 0 0 0 
0 0 0 0 0 0 
0 0 0 0 0 0 
0 0 0 0 0 0 
0 0 0 0 0 0 
0 0 0 0 0 0 