<VTKFile type="UnstructuredGrid" version="1.0" byte_order="LittleEndian" header_type="UInt64">
<UnstructuredGrid>
<Piece NumberOfPoints="10440" NumberOfCells="6670">
<PointData>
</PointData>
<CellData Scalars="Temperature (C)">
<DataArray type="Float32" Name="Temperature (C)" format="ascii" RangeMin="21.7529" RangeMax="24.4447">
22.3821 22.3892 22.3157 22.279 22.3204 22.2822
22.4032 22.4102 22.339 22.2936 22.3442 22.2977
22.2396 22.2424 22.1875 22.1898 22.2488 22.2522
22.1928 22.1956 22.1469 22.1488 22.1166 22.1182
22.1504 22.1527 22.1191 22.1211 22.0905 22.0921
22.0714 22.0731 22.0921 22.094 22.0722 22.074
22.0625 22.0644 22.0656 22.0678 22.0629 22.0645
22.0666 22.0686 22.0777 22.0803 22.1028 22.1059
22.0787 22.0809 22.1029 22.1057 22.1449 22.1484
22.198 22.202 22.143 22.1463 22.195 22.199
22.2609 22.2656 22.3346 22.3399 22.2573 22.262
22.3314 22.3368 22.4203 22.4264 22.5209 22.5277
22.4177 22.4239 22.5194 22.5263 22.6385 22.6461
22.7769 22.7852 22.6381 22.6459 22.7776 22.7862
22.938 22.9471 23.1244 23.1344 22.9396 22.9491
23.1264 23.1368 23.3353 23.3463 23.5675 23.5795
23.3377 23.349 23.5701 23.5827 23.8136 23.827
24.0593 24.0746 23.8171 23.8312 24.0648 24.081
24.2795 24.2979 24.397 24.4182 24.29 24.3091
24.4167 24.4383 22.4688 22.4758 22.3957 22.3433
22.4016 22.3485 22.5505 22.5582 22.465 22.405
22.4717 22.4109 22.2927 22.2973 22.2315 22.2354
22.3476 22.353 22.2797 22.2843 22.6795 22.6887
22.576 22.5043 22.5835 22.5109 22.8051 22.8156
22.6905 22.6093 22.6985 22.616 22.4366 22.4424
22.358 22.3629 22.533 22.5387 22.4454 22.45
22.1855 22.1889 22.1514 22.1544 22.229 22.2331
22.1913 22.195 22.1215 22.1244 22.0982 22.1007
22.1579 22.1612 22.1306 22.1335 22.3 22.3043
22.2572 22.2609 22.3819 22.3855 22.3353 22.3383
22.219 22.2223 22.1873 22.19 22.2941 22.2964
22.2599 22.2614 22.9176 22.929 22.8007 22.7146
22.809 22.7212 23.0247 23.0368 22.9081 22.8218
22.9169 22.829 22.6336 22.639 22.5417 22.5458
22.7409 22.7471 22.6509 22.6559 23.0949 23.1062
22.977 22.8939 22.986 22.9016 23.1333 23.144
23.0172 22.9374 23.0262 22.9453 22.8167 22.8235
22.7316 22.7375 22.8637 22.8708 22.783 22.7893
22.4764 22.4795 22.4295 22.4318 22.5885 22.5927
22.5449 22.5485 22.3891 22.3907 22.3571 22.358
22.5087 22.5119 22.4817 22.4846 22.6735 22.6787
22.6335 22.6383 22.7282 22.734 22.6908 22.6962
22.6009 22.6054 22.5773 22.5815 22.6607 22.6659
22.6393 22.6443 23.1774 23.1876 23.0692 22.9963
23.0781 23.0044 23.203 23.2122 23.1098 23.0469
23.1185 23.0551 22.9292 22.9367 22.8561 22.863
22.9884 22.9963 22.9245 22.932 23.2213 23.2298
23.1419 23.0871 23.1504 23.0955 23.2478 23.2563
23.1824 23.135 23.191 23.1437 23.0357 23.0439
22.9791 22.987 23.0902 23.0987 23.0406 23.049
22.8069 22.8134 22.7737 22.7798 22.8816 22.8888
22.8529 22.8598 22.7474 22.7533 22.7293 22.7351
22.8305 22.8373 22.8158 22.8224 22.9413 22.9489
22.9161 22.9236 23.0077 23.016 22.9862 22.9943
22.8969 22.9042 22.8847 22.892 22.9701 22.9781
22.9607 22.9686 23.2858 23.3296 23.295 23.3397
23.2248 23.1804 23.2668 23.2228 23.2337 23.1895
23.2762 23.2322 23.3869 23.4527 23.3978 23.4642
23.3182 23.2725 23.3761 23.3275 23.3281 23.2824
23.3866 23.338 23.1386 23.1819 23.1476 23.1912
23.0929 23.1383 23.1018 23.1476 23.2311 23.2845
23.2409 23.2948 23.1884 23.2417 23.1982 23.252
23.5326 23.5445 23.4476 23.3956 23.4587 23.4066
23.5942 23.6064 23.5069 23.4537 23.5185 23.4652
23.3504 23.3613 23.307 23.3177 23.4077 23.4191
23.3637 23.3748 23.0632 23.1106 23.072 23.1198
23.0441 23.0931 23.0528 23.1022 23.1621 23.216
23.1718 23.2262 23.1457 23.2003 23.1554 23.2105
23.0303 23.0808 23.0388 23.0899 23.0228 23.0747
23.0313 23.0837 23.1346 23.1899 23.1443 23.2
23.1295 23.1853 23.1392 23.1955 23.2813 23.292
23.2659 23.2765 23.3377 23.3487 23.322 23.333
23.2557 23.2663 23.2513 23.2619 23.3117 23.3227
23.3071 23.3181 23.6308 23.6433 23.5433 23.4898
23.5552 23.5016 23.6819 23.6946 23.5935 23.5401
23.6058 23.5522 23.4437 23.4553 23.3993 23.4106
23.494 23.5058 23.449 23.4605 23.7306 23.7437
23.6403 23.5872 23.6532 23.5997 23.7631 23.7765
23.6721 23.6189 23.6852 23.6314 23.541 23.553
23.4953 23.5072 23.5721 23.5844 23.526 23.538
23.3729 23.3842 23.357 23.3683 23.4221 23.4336
23.4059 23.4174 23.3465 23.3578 23.3418 23.3531
23.3951 23.4066 23.3902 23.4017 23.468 23.4798
23.4515 23.4633 23.4984 23.5104 23.4818 23.4937
23.4405 23.4522 23.4353 23.4472 23.4706 23.4826
23.4654 23.4774 23.7941 23.8076 23.7029 23.6489
23.716 23.6616 23.8316 23.8455 23.7403 23.6853
23.7534 23.6981 23.6016 23.6139 23.5549 23.5671
23.6371 23.6496 23.5899 23.6022 23.8736 23.8878
23.7813 23.7254 23.7946 23.7384 23.9109 23.925
23.8167 23.76 23.8301 23.7731 23.6763 23.6891
23.6287 23.6413 23.7104 23.7233 23.6627 23.6754
23.5271 23.5393 23.5104 23.5225 23.5619 23.5742
23.5452 23.5574 23.4992 23.5113 23.494 23.5061
23.534 23.5462 23.5288 23.5411 23.6008 23.6133
23.5842 23.5966 23.635 23.6476 23.6187 23.6313
23.5732 23.5857 23.5682 23.5807 23.6082 23.6208
23.6036 23.6163 23.9398 23.9538 23.845 23.7882
23.8584 23.8013 23.9542 23.9681 23.8608 23.8046
23.8741 23.8177 23.7387 23.7517 23.6913 23.7041
23.7555 23.7685 23.7087 23.7217 23.9618 23.9757
23.8695 23.8137 23.8828 23.8268 23.9721 23.9859
23.8804 23.8251 23.8936 23.8381 23.765 23.778
23.7187 23.7316 23.7768 23.7898 23.7313 23.7442
23.6642 23.6769 23.6484 23.6612 23.6822 23.6951
23.6671 23.68 23.6385 23.6513 23.6345 23.6474
23.6578 23.6707 23.6544 23.6673 23.6927 23.7055
23.6779 23.6908 23.706 23.7188 23.6918 23.7047
23.669 23.6819 23.6661 23.679 23.6836 23.6965
23.6813 23.6943 23.9808 23.9946 23.8885 23.8334
23.9017 23.8464 23.9875 24.0013 23.8948 23.8398
23.908 23.8528 23.7855 23.7985 23.7407 23.7536
23.7923 23.8052 23.7482 23.7611 23.9924 24.006
23.8993 23.8445 23.9123 23.8574 23.9934 24.007
23.8999 23.8455 23.9129 23.8583 23.7974 23.8102
23.7544 23.7672 23.799 23.8117 23.7572 23.77
23.7162 23.7291 23.7028 23.7157 23.7245 23.7373
23.7118 23.7247 23.6953 23.7083 23.6938 23.7069
23.7052 23.7181 23.7044 23.7175 23.7318 23.7446
23.7202 23.7331 23.7359 23.7487 23.7255 23.7384
23.7147 23.7277 23.7151 23.7282 23.7212 23.7342
23.7229 23.736 22.0848 22.0869 22.0857 22.0883
22.1127 22.1151 22.1105 22.1134 22.0951 22.0978
22.1168 22.12 22.1172 22.1201 22.136 22.1395
22.1654 22.1674 22.1598 22.1622 22.2363 22.2367
22.2287 22.2294 22.1637 22.1661 22.1795 22.1824
22.2311 22.2319 22.2445 22.2456 22.1538 22.1575
22.2036 22.2079 22.1701 22.174 22.2174 22.2219
22.2643 22.2692 22.3374 22.3429 22.2764 22.2814
22.3481 22.3537 22.2105 22.2138 22.2549 22.2588
22.2736 22.2751 22.3163 22.3185 22.3116 22.3158
22.3813 22.3861 22.372 22.3747 22.4411 22.4447
22.3371 22.3377 22.3305 22.3313 22.4654 22.4682
22.4603 22.4633 22.3329 22.3338 22.3453 22.3466
22.4632 22.4663 22.4749 22.4782 22.5636 22.5677
22.5601 22.5643 22.6274 22.6323 22.625 22.63
22.5637 22.5681 22.5754 22.58 22.6293 22.6344
22.6413 22.6464 22.3725 22.3744 22.4132 22.4157
22.4997 22.5033 22.5365 22.5407 22.4665 22.4699
22.5327 22.5369 22.5853 22.59 22.6459 22.6513
22.5992 22.604 22.6339 22.6391 22.6646 22.67
22.6981 22.7039 22.6795 22.6852 22.7361 22.7423
22.7419 22.7481 22.796 22.8027 22.4233 22.4295
22.5246 22.5316 22.4331 22.4394 22.5336 22.5406
22.6431 22.6509 22.7822 22.7907 22.6516 22.6592
22.7897 22.798 22.4648 22.4701 22.5639 22.5699
22.5241 22.5286 22.6222 22.6276 22.6806 22.6873
22.8171 22.8246 22.737 22.7434 22.87 22.8775
22.9435 22.9528 23.1292 23.1393 22.95 22.959
23.1342 23.1441 23.339 23.3499 23.5699 23.582
23.3423 23.353 23.5712 23.5831 22.9754 22.9837
23.1563 23.1657 23.0234 23.0319 23.1977 23.2073
23.36 23.3705 23.5835 23.5952 23.3934 23.4041
23.6075 23.6195 22.6122 22.6173 22.7057 22.7118
22.7193 22.7255 22.8059 22.8128 22.8151 22.8221
22.9414 22.9494 22.9075 22.9152 23.0246 23.0332
22.8047 22.8116 22.8856 22.8931 22.8615 22.8688
22.9387 22.9466 22.9807 22.9889 23.0903 23.0992
23.0294 23.038 23.134 23.1432 23.0867 23.0957
23.2512 23.2612 23.1595 23.1691 23.3122 23.3227
23.436 23.4471 23.6381 23.6504 23.4841 23.4955
23.6726 23.6851 23.2167 23.2265 23.3599 23.3705
23.2547 23.2648 23.3915 23.4024 23.5214 23.533
23.6991 23.7117 23.5461 23.5578 23.7167 23.7293
22.7201 22.7258 22.7195 22.7253 22.8091 22.8157
22.8103 22.817 22.7249 22.7308 22.7373 22.7434
22.8167 22.8235 22.8298 22.8367 22.8801 22.8874
22.8826 22.89 22.9582 22.9661 22.962 22.97
22.89 22.8974 22.9035 22.911 22.9702 22.9783
22.9841 22.9924 22.7603 22.7666 22.7924 22.799
22.8525 22.8597 22.8835 22.8909 22.8337 22.8407
22.8845 22.8919 22.9227 22.9305 22.9705 22.9786
22.9261 22.9338 22.9562 22.9642 23.0065 23.0149
23.0356 23.0442 22.9938 23.0021 23.0392 23.0479
23.0714 23.0804 23.1143 23.1235 23.0218 23.0747
23.0303 23.0838 23.0266 23.0801 23.0352 23.0893
23.1302 23.1863 23.1399 23.1965 23.1361 23.1923
23.1459 23.2026 23.0353 23.0891 23.044 23.0984
23.0495 23.1034 23.0583 23.1128 23.1453 23.2016
23.1552 23.212 23.1596 23.2158 23.1696 23.2262
23.2524 23.2631 23.2585 23.2693 23.3081 23.3192
23.3141 23.3253 23.2678 23.2786 23.2816 23.2925
23.3232 23.3344 23.3367 23.348 23.0715 23.1252
23.0806 23.1348 23.0997 23.1526 23.109 23.1624
23.1809 23.2366 23.1911 23.2472 23.2074 23.2622
23.2178 23.273 23.1341 23.1857 23.1436 23.1957
23.1748 23.2245 23.1846 23.2348 23.2391 23.2924
23.2497 23.3035 23.276 23.3274 23.2869 23.3386
23.3018 23.3128 23.3261 23.3374 23.3561 23.3676
23.3794 23.391 23.3547 23.3661 23.3872 23.3989
23.4064 23.4182 23.4369 23.449 22.9456 22.9535
23.0174 23.0259 23.0275 23.0361 23.0943 23.1034
23.1017 23.1108 23.1989 23.2086 23.1724 23.1821
23.2624 23.2726 23.0931 23.1022 23.156 23.1655
23.1646 23.1743 23.2232 23.2332 23.2291 23.2392
23.3134 23.3239 23.2909 23.3015 23.3689 23.3798
23.3111 23.3216 23.4385 23.4496 23.3663 23.3772
23.4845 23.4959 23.5828 23.5947 23.7427 23.7554
23.6186 23.6308 23.768 23.7807 23.4106 23.4217
23.5213 23.5329 23.4588 23.4702 23.5613 23.5732
23.6473 23.6596 23.788 23.8009 23.6783 23.6908
23.8096 23.8225 23.2223 23.2696 23.2325 23.2803
23.2772 23.3215 23.2877 23.3325 23.3186 23.3674
23.3298 23.379 23.3674 23.4129 23.3788 23.4247
23.3407 23.3813 23.3516 23.3927 23.4135 23.4498
23.4248 23.4615 23.4233 23.4649 23.4351 23.4771
23.4872 23.5242 23.4993 23.5367 23.4242 23.4361
23.4659 23.4781 23.4713 23.4836 23.5099 23.5224
23.5133 23.5258 23.5671 23.58 23.5534 23.5662
23.6027 23.6158 23.4974 23.5287 23.5091 23.5408
23.5932 23.619 23.6054 23.6314 23.5608 23.5925
23.5733 23.6053 23.6452 23.671 23.658 23.6841
23.7029 23.7226 23.7156 23.7355 23.8265 23.8398
23.8396 23.8531 23.7424 23.7617 23.7556 23.7752
23.8531 23.8658 23.8666 23.8795 23.6292 23.6423
23.7007 23.7141 23.6595 23.6729 23.7251 23.7388
23.7838 23.7976 23.88 23.8939 23.8019 23.8158
23.8913 23.9054 23.8157 23.8291 24.0632 24.0787
23.8151 23.8284 24.0615 24.0768 24.2903 24.3085
24.4223 24.4423 24.2895 24.3075 24.4246 24.4441
23.8216 23.8348 24.0627 24.0778 23.8363 23.8497
24.0688 24.0839 24.2879 24.3054 24.4253 24.4439
24.2888 24.3061 24.4266 24.4447 23.8552 23.8688
24.0774 24.0924 23.8764 23.8901 24.0871 24.102
24.2904 24.3073 24.4271 24.4445 24.2923 24.3088
24.4268 24.4439 23.8923 23.9059 24.0938 24.1085
23.9027 23.9163 24.0981 24.1126 24.2925 24.3085
24.4249 24.4414 24.2922 24.308 24.4229 24.4392
23.918 23.9317 24.1042 24.1186 23.9327 23.9463
24.1091 24.1233 24.2912 24.3067 24.4191 24.4351
24.2884 24.3036 24.4137 24.4293 23.9441 23.9577
24.1124 24.1265 23.956 23.9696 24.115 24.1291
24.2852 24.3004 24.4084 24.4238 24.2804 24.2955
24.4012 24.4164 23.965 23.9719 23.9787 23.9857
24.1162 24.1168 24.1304 24.131 23.9785 23.9846
23.9924 23.9987 24.1171 24.1173 24.1314 24.1316
24.2754 24.2709 24.2904 24.2859 24.3942 24.3881
24.4091 24.4028 24.2663 24.2619 24.2814 24.2767
24.3817 24.3751 24.3963 24.3896 23.9911 24.0052
24.1167 24.131 23.9956 24.0098 24.1148 24.1291
24.2554 24.2701 24.3658 24.3801 24.248 24.2624
24.3554 24.3695 23.3427 23.3541 23.3486 23.36
23.3909 23.4025 23.3965 23.4082 23.3575 23.369
23.3707 23.3823 23.4051 23.4168 23.4178 23.4296
23.4359 23.4477 23.4413 23.4532 23.4659 23.4779
23.4711 23.4832 23.4495 23.4616 23.4618 23.4739
23.4792 23.4914 23.4912 23.5035 23.3896 23.4014
23.4122 23.4241 23.436 23.4479 23.4574 23.4695
23.4382 23.4503 23.4674 23.4797 23.4819 23.4943
23.5093 23.5218 23.4792 23.4915 23.4996 23.512
23.508 23.5205 23.5277 23.5403 23.5227 23.5353
23.5482 23.561 23.5498 23.5627 23.5741 23.5871
23.4944 23.5066 23.4995 23.5118 23.5292 23.5415
23.5342 23.5466 23.5075 23.5198 23.5191 23.5316
23.5419 23.5545 23.5533 23.5659 23.5688 23.5813
23.5738 23.5865 23.6045 23.6172 23.6097 23.6225
23.5814 23.5942 23.5924 23.6053 23.6172 23.6302
23.628 23.6411 23.5355 23.5481 23.5545 23.5672
23.569 23.5818 23.5871 23.6001 23.5757 23.5886
23.5987 23.6119 23.6072 23.6203 23.6287 23.642
23.6075 23.6206 23.6247 23.6379 23.6427 23.6559
23.659 23.6724 23.6434 23.6568 23.6632 23.6768
23.6765 23.6902 23.6947 23.7086 23.5002 23.5127
23.5366 23.5494 23.5396 23.5523 23.5731 23.5861
23.5777 23.5908 23.6241 23.6374 23.6105 23.6238
23.6527 23.6662 23.5762 23.5893 23.6069 23.6202
23.6006 23.6138 23.6294 23.6428 23.641 23.6546
23.6792 23.6929 23.6611 23.6749 23.6966 23.7105
23.6775 23.6911 23.7393 23.7532 23.7012 23.715
23.7575 23.7715 23.8119 23.826 23.8969 23.9112
23.824 23.8382 23.9026 23.9168 23.723 23.737
23.774 23.7882 23.7372 23.7514 23.7846 23.7989
23.8346 23.8489 23.9068 23.9212 23.8411 23.8555
23.9089 23.9234 23.6237 23.6371 23.6506 23.6642
23.6518 23.6653 23.6763 23.6901 23.6801 23.694
23.7129 23.7269 23.703 23.717 23.7324 23.7466
23.684 23.6978 23.7059 23.7199 23.7136 23.7276
23.7329 23.7471 23.7293 23.7435 23.7547 23.7691
23.7532 23.7676 23.7749 23.7895 23.7504 23.7647
23.7941 23.8086 23.766 23.7804 23.8052 23.8197
23.8466 23.8612 23.91 23.9246 23.8525 23.8672
23.9104 23.925 23.7836 23.7981 23.8173 23.832
23.7992 23.814 23.8278 23.8426 23.8584 23.8732
23.9093 23.9241 23.8628 23.8777 23.9069 23.9218
23.6358 23.6487 23.6413 23.6543 23.6562 23.6692
23.662 23.6751 23.649 23.6621 23.6598 23.673
23.6699 23.6832 23.6807 23.6942 23.6682 23.6813
23.6743 23.6875 23.684 23.6971 23.6905 23.7038
23.6823 23.6957 23.6933 23.7068 23.6988 23.7122
23.71 23.7236 23.6741 23.6875 23.6898 23.7034
23.695 23.7086 23.7103 23.7242 23.7063 23.7202
23.7232 23.7372 23.7263 23.7404 23.7423 23.7566
23.7075 23.7212 23.7227 23.7366 23.7241 23.7379
23.7391 23.7531 23.7383 23.7524 23.7537 23.7681
23.7542 23.7685 23.7689 23.7834 23.6972 23.7104
23.7041 23.7175 23.7085 23.7217 23.716 23.7294
23.7129 23.7264 23.7243 23.738 23.7252 23.7387
23.7369 23.7507 23.7202 23.7335 23.7286 23.7421
23.7291 23.7424 23.7384 23.7519 23.7383 23.752
23.7506 23.7645 23.7488 23.7625 23.7617 23.7756
23.7386 23.7526 23.7534 23.7676 23.7514 23.7654
23.7661 23.7804 23.7682 23.7827 23.7823 23.797
23.7806 23.7951 23.7941 23.8088 23.7654 23.7795
23.7802 23.7946 23.7768 23.7911 23.7918 23.8063
23.7944 23.8091 23.8073 23.8222 23.8058 23.8206
23.8183 23.8333 23.7402 23.7545 23.7572 23.7717
23.7581 23.7726 23.7736 23.7883 23.7747 23.7893
23.7929 23.8077 23.789 23.8039 23.8049 23.8199
23.7688 23.7834 23.7833 23.7981 23.783 23.7977
23.7961 23.811 23.7975 23.8125 23.8118 23.8269
23.8086 23.8237 23.8207 23.8359 23.8131 23.8281
23.8366 23.8517 23.8221 23.8373 23.8421 23.8573
23.8658 23.8809 23.9034 23.9184 23.8671 23.8823
23.8998 23.9149 23.8272 23.8424 23.8449 23.8602
23.8333 23.8486 23.8477 23.8631 23.8671 23.8825
23.8967 23.9119 23.866 23.8814 23.891 23.9062
23.7954 23.8103 23.8073 23.8224 23.8064 23.8213
23.8171 23.8322 23.8182 23.8334 23.8282 23.8436
23.8264 23.8417 23.8345 23.8499 23.8186 23.8337
23.828 23.8433 23.8288 23.844 23.8369 23.8524
23.8354 23.8509 23.8411 23.8567 23.8428 23.8584
23.8463 23.862 23.8383 23.8538 23.8496 23.8651
23.8421 23.8576 23.8503 23.8658 23.8641 23.8795
23.8845 23.8998 23.861 23.8765 23.877 23.8924
23.8457 23.8614 23.8501 23.8658 23.8482 23.864
23.8491 23.8649 23.8562 23.8718 23.8667 23.8821
23.851 23.8666 23.8563 23.8717 23.9967 24.011
24.1117 24.1261 23.9957 24.01 24.1044 24.1187
24.2412 24.2556 24.3466 24.3606 24.2283 24.2426
24.3307 24.3446 23.9933 24.0078 24.0957 24.11
23.9908 24.0053 24.0886 24.103 24.2138 24.2279
24.3131 24.3267 24.2027 24.2167 24.2996 24.3131
23.9874 24.0019 24.0806 24.0949 23.9818 23.9963
24.0691 24.0834 24.1905 24.2045 24.2851 24.2985
24.1737 24.1876 24.2653 24.2785 23.9734 23.988
24.0534 24.0677 23.9636 23.9784 24.0364 24.0507
24.1514 24.1651 24.2392 24.2522 24.1278 24.1415
24.2122 24.2251 23.9529 23.9677 24.0184 24.0327
23.9439 23.9588 24.0039 24.0183 24.1034 24.1169
24.1844 24.1973 24.084 24.0975 24.1625 24.1752
23.9373 23.9522 23.9937 24.008 23.9264 23.9413
23.9776 23.9919 24.0706 24.084 24.1474 24.16
24.0498 24.0631 24.1241 24.1366 23.9149 23.9299
23.9608 23.9751 23.9025 23.9174 23.9432 23.9575
24.0283 24.0415 24.0999 24.1124 24.006 24.0191
24.0751 24.0874 23.8858 23.9007 23.92 23.9342
23.8695 23.8845 23.8976 23.9117 23.9768 23.9897
24.0425 24.0546 23.9487 23.9615 24.0113 24.0232
23.9902 24.0037 23.8967 23.843 23.9096 23.8557
23.9815 23.9947 23.8895 23.8372 23.9022 23.8498
23.7975 23.8101 23.7573 23.7699 23.7931 23.8057
23.7549 23.7675 23.97 23.9831 23.8811 23.8306
23.8937 23.8431 23.9613 23.9743 23.8748 23.8255
23.8873 23.8379 23.7881 23.8006 23.7516 23.7642
23.784 23.7965 23.7488 23.7613 23.7374 23.7502
23.7283 23.7411 23.7368 23.7495 23.729 23.7418
23.7253 23.7383 23.7282 23.7414 23.7274 23.7404
23.7317 23.7449 23.7349 23.7476 23.7283 23.7411
23.7329 23.7456 23.727 23.7398 23.7278 23.7407
23.7331 23.7463 23.7273 23.7402 23.7333 23.7464
23.949 23.9618 23.865 23.8172 23.8773 23.8295
23.9387 23.9514 23.8557 23.809 23.8679 23.8212
23.7772 23.7895 23.7436 23.756 23.7701 23.7824
23.738 23.7504 23.9285 23.9412 23.8465 23.8007
23.8586 23.8128 23.9171 23.9297 23.8358 23.791
23.8479 23.803 23.7628 23.7749 23.732 23.7443
23.7539 23.766 23.7245 23.7367 23.7291 23.7416
23.7242 23.7369 23.7247 23.7372 23.7208 23.7335
23.7255 23.7384 23.7325 23.7456 23.723 23.7359
23.7309 23.7441 23.7197 23.7322 23.7168 23.7294
23.7135 23.7259 23.7116 23.7242 23.7199 23.7327
23.7287 23.7418 23.7157 23.7286 23.7255 23.7387
23.9077 23.9203 23.8267 23.7824 23.8387 23.7944
23.8988 23.9114 23.818 23.7745 23.8301 23.7865
23.7461 23.7582 23.7179 23.7301 23.7391 23.7511
23.7121 23.7243 23.8883 23.9007 23.809 23.7667
23.821 23.7787 23.8782 23.8906 23.8021 23.7613
23.814 23.7732 23.7325 23.7445 23.7068 23.719
23.7282 23.7402 23.7035 23.7158 23.708 23.7204
23.7069 23.7195 23.7031 23.7155 23.7028 23.7155
23.712 23.7248 23.7227 23.7358 23.7086 23.7215
23.72 23.7332 23.6989 23.7113 23.6993 23.7119
23.6962 23.7087 23.6971 23.7098 23.7057 23.7186
23.7177 23.7309 23.7039 23.7169 23.7162 23.7295
23.8715 23.884 23.7976 23.7577 23.8096 23.7696
23.8639 23.8764 23.7916 23.7527 23.8036 23.7646
23.7253 23.7374 23.7013 23.7135 23.7212 23.7332
23.6979 23.7102 23.8609 23.8735 23.7884 23.7498
23.8005 23.7618 23.8587 23.8715 23.7861 23.7475
23.7982 23.7596 23.7186 23.7307 23.6957 23.708
23.7165 23.7287 23.6938 23.7061 23.6943 23.7068
23.6955 23.7082 23.6914 23.7039 23.6928 23.7056
23.7025 23.7155 23.715 23.7283 23.7001 23.7131
23.7128 23.7261 23.6894 23.702 23.691 23.7038
23.6876 23.7002 23.6891 23.702 23.6983 23.7114
23.711 23.7244 23.6964 23.7096 23.7091 23.7225
23.859 23.872 23.7858 23.747 23.7981 23.7592
23.861 23.8742 23.7869 23.7477 23.7994 23.7602
23.7157 23.7281 23.6929 23.7054 23.7163 23.7288
23.6933 23.706 23.8625 23.8758 23.7875 23.7482
23.8001 23.7607 23.8631 23.8764 23.7875 23.7482
23.8002 23.7609 23.7167 23.7293 23.6936 23.7063
23.7168 23.7296 23.6938 23.7067 23.6866 23.6993
23.688 23.701 23.6868 23.6997 23.688 23.7011
23.6951 23.7084 23.7075 23.7211 23.6949 23.7083
23.7071 23.7207 23.687 23.7 23.6881 23.7013
23.6872 23.7003 23.6881 23.7014 23.6948 23.7082
23.7067 23.7204 23.6946 23.7082 23.7062 23.7201
23.8614 23.8748 23.7862 23.7476 23.7991 23.7604
23.8561 23.8696 23.7839 23.7466 23.7969 23.7596
23.7167 23.7296 23.6941 23.7071 23.7168 23.7298
23.6948 23.7081 23.852 23.8655 23.7821 23.7458
23.7951 23.7588 23.8472 23.8609 23.7796 23.7446
23.7928 23.7577 23.7167 23.7298 23.6952 23.7085
23.7164 23.7297 23.6957 23.7091 23.6875 23.7007
23.6883 23.7018 23.6884 23.7018 23.6892 23.7028
23.6946 23.7082 23.7058 23.7197 23.6952 23.709
23.706 23.7201 23.6889 23.7024 23.6896 23.7033
23.6895 23.7031 23.6902 23.704 23.6955 23.7094
23.7061 23.7202 23.6958 23.7098 23.706 23.7203
23.8451 23.859 23.778 23.7435 23.7913 23.7569
23.8431 23.8571 23.7761 23.7419 23.7896 23.7554
23.7159 23.7294 23.6956 23.7092 23.7145 23.728
23.6943 23.708 23.8419 23.856 23.7746 23.7405
23.7882 23.7541 23.8408 23.855 23.7731 23.7389
23.7868 23.7526 23.7132 23.7268 23.693 23.7068
23.7115 23.7252 23.6911 23.7051 23.6895 23.7033
23.69 23.704 23.6882 23.7021 23.6886 23.7027
23.6955 23.7097 23.7056 23.7201 23.6938 23.7081
23.7038 23.7183 23.6867 23.7007 23.687 23.7011
23.6846 23.6988 23.6846 23.6989 23.6919 23.7063
23.7015 23.7161 23.6891 23.7036 23.6982 23.7129
23.8405 23.8549 23.7721 23.7376 23.7859 23.7515
23.8402 23.8547 23.7712 23.7364 23.7851 23.7504
23.7099 23.7239 23.6892 23.7033 23.7085 23.7226
23.6872 23.7015 23.8386 23.853 23.7696 23.7347
23.7836 23.7488 23.8362 23.8507 23.7679 23.7329
23.7819 23.7471 23.7066 23.7208 23.6848 23.6992
23.7045 23.7187 23.6822 23.6966 23.6822 23.6965
23.6816 23.6961 23.6796 23.6941 23.6784 23.6931
23.6855 23.7002 23.6937 23.7086 23.6815 23.6964
23.6888 23.7038 23.6765 23.6911 23.6746 23.6894
23.6733 23.688 23.6708 23.6856 23.6768 23.6918
23.6831 23.6983 23.6723 23.6874 23.6778 23.693
23.7356 23.749 23.7458 23.7594 23.7403 23.7537
23.7514 23.765 23.7569 23.7707 23.7704 23.7845
23.7632 23.7771 23.7774 23.7916 23.7426 23.7561
23.7544 23.7682 23.7434 23.7568 23.7557 23.7694
23.7669 23.7808 23.7816 23.7958 23.7685 23.7825
23.7835 23.7978 23.786 23.8004 23.8012 23.8158
23.7936 23.808 23.809 23.8237 23.8152 23.8301
23.8273 23.8425 23.823 23.838 23.8349 23.8501
23.7981 23.8127 23.8138 23.8287 23.8003 23.8149
23.8162 23.8311 23.8279 23.8431 23.8396 23.855
23.8303 23.8455 23.8419 23.8573 23.7434 23.7568
23.7564 23.7701 23.7427 23.7562 23.7563 23.7701
23.7697 23.7837 23.7852 23.7995 23.7701 23.7842
23.7861 23.8004 23.7413 23.7547 23.7554 23.7692
23.739 23.7524 23.7539 23.7676 23.7697 23.7837
23.786 23.8004 23.7686 23.7827 23.7854 23.7998
23.8024 23.817 23.8184 23.8334 23.8036 23.8183
23.8198 23.8348 23.8326 23.8478 23.844 23.8595
23.834 23.8493 23.8452 23.8609 23.8039 23.8186
23.8202 23.8353 23.8036 23.8183 23.82 23.8351
23.8344 23.8497 23.8455 23.8611 23.8341 23.8496
23.845 23.8607 23.8372 23.8525 23.8443 23.8599
23.8442 23.8597 23.8504 23.8661 23.8487 23.8645
23.8504 23.8662 23.8535 23.8694 23.8534 23.8694
23.8485 23.8642 23.8542 23.87 23.8506 23.8663
23.8558 23.8717 23.8564 23.8724 23.855 23.8711
23.8575 23.8735 23.8553 23.8715 23.8498 23.8657
23.8476 23.8634 23.8504 23.8664 23.8452 23.8611
23.8455 23.8612 23.846 23.8615 23.8393 23.8551
23.8353 23.8507 23.8504 23.8665 23.843 23.8591
23.8496 23.8658 23.8408 23.8569 23.8344 23.8503
23.827 23.8425 23.8304 23.8463 23.8208 23.8363
23.8524 23.8681 23.857 23.873 23.8533 23.8691
23.8574 23.8734 23.8579 23.874 23.8545 23.8707
23.8574 23.8736 23.8529 23.8691 23.8532 23.869
23.8567 23.8728 23.8522 23.8682 23.8551 23.8712
23.8559 23.8721 23.8503 23.8666 23.8533 23.8695
23.8463 23.8626 23.8473 23.8634 23.8364 23.8525
23.8441 23.8604 23.8313 23.8474 23.8235 23.8393
23.8106 23.8261 23.8158 23.8317 23.7998 23.8153
23.8401 23.8563 23.8253 23.8414 23.8342 23.8505
23.8171 23.8332 23.8074 23.8232 23.7883 23.8037
23.7961 23.8119 23.7733 23.7887 23.7369 23.7503
23.7523 23.7661 23.7349 23.7484 23.7508 23.7646
23.7675 23.7817 23.7847 23.7991 23.7663 23.7805
23.7837 23.7982 23.7331 23.7466 23.7494 23.7633
23.7319 23.7455 23.7484 23.7624 23.7651 23.7794
23.7828 23.7974 23.7643 23.7786 23.782 23.7967
23.8031 23.8179 23.8196 23.8348 23.8023 23.8172
23.8188 23.8341 23.8336 23.8492 23.8443 23.8601
23.8328 23.8484 23.8432 23.859 23.8014 23.8164
23.818 23.8333 23.8007 23.8158 23.8172 23.8326
23.8318 23.8474 23.8419 23.8579 23.8309 23.8466
23.8408 23.8568 23.7308 23.7444 23.7474 23.7614
23.7287 23.7423 23.7453 23.7594 23.7634 23.7777
23.7811 23.7958 23.7614 23.7758 23.7791 23.7939
23.7269 23.7406 23.7436 23.7577 23.7249 23.7387
23.7415 23.7557 23.7596 23.774 23.7773 23.7921
23.7575 23.772 23.7751 23.7899 23.7998 23.8149
23.8162 23.8317 23.7978 23.8129 23.8141 23.8296
23.8298 23.8456 23.8396 23.8556 23.8275 23.8433
23.837 23.8531 23.7958 23.811 23.8119 23.8275
23.7934 23.8086 23.8094 23.8249 23.8252 23.841
23.8344 23.8506 23.8224 23.8382 23.8313 23.8475
23.8511 23.8671 23.8532 23.8695 23.8495 23.8656
23.8511 23.8674 23.8505 23.8669 23.8423 23.8587
23.8475 23.8639 23.8381 23.8545 23.8479 23.8641
23.8488 23.8652 23.8465 23.8628 23.847 23.8635
23.8445 23.861 23.834 23.8505 23.8421 23.8587
23.8308 23.8474 23.8285 23.8449 23.8091 23.8253
23.8228 23.8392 23.8014 23.8176 23.7854 23.8012
23.7591 23.7745 23.775 23.7908 23.7455 23.7608
23.8172 23.8336 23.7938 23.81 23.8131 23.8295
23.7882 23.8045 23.7649 23.7807 23.7323 23.7476
23.7575 23.7734 23.7226 23.7379 23.8451 23.8614
23.8454 23.8619 23.8422 23.8586 23.8421 23.8587
23.8401 23.8567 23.8284 23.845 23.8364 23.853
23.824 23.8406 23.8393 23.8557 23.8389 23.8555
23.8359 23.8523 23.8351 23.8517 23.8328 23.8494
23.8198 23.8365 23.8286 23.8453 23.8153 23.832
23.8099 23.8264 23.7842 23.8005 23.8047 23.8212
23.7777 23.794 23.7523 23.7682 23.7159 23.7312
23.7441 23.7599 23.7055 23.7208 23.7999 23.8164
23.7717 23.788 23.7949 23.8114 23.7655 23.7818
23.7364 23.7523 23.6958 23.7111 23.7287 23.7445
23.6861 23.7014 23.8537 23.8686 23.8759 23.89
23.8376 23.8524 23.8541 23.8681 23.9218 23.9344
23.9816 23.9934 23.8948 23.9072 23.9517 23.9633
23.8253 23.8402 23.8376 23.8516 23.8166 23.8315
23.8261 23.84 23.8744 23.8868 23.9294 23.9409
23.8604 23.8727 23.9139 23.9253 23.8026 23.8174
23.8081 23.8218 23.7882 23.8029 23.7897 23.8034
23.8387 23.8508 23.8901 23.9014 23.8166 23.8286
23.8659 23.877 23.7731 23.7877 23.7707 23.7843
23.7536 23.7683 23.7466 23.7601 23.7942 23.806
23.8413 23.8522 23.7657 23.7773 23.8102 23.821
23.7354 23.7499 23.724 23.7373 23.718 23.7324
23.7025 23.7157 23.739 23.7505 23.7812 23.7919
23.7135 23.7249 23.7534 23.7639 23.701 23.7154
23.6814 23.6946 23.6885 23.703 23.6658 23.679
23.6886 23.6999 23.7262 23.7366 23.6699 23.6811
23.7056 23.7159 23.68 23.6945 23.6553 23.6684
23.667 23.6814 23.6393 23.6524 23.6573 23.6685
23.6916 23.7019 23.6384 23.6495 23.6707 23.6808
23.6549 23.6692 23.6244 23.6374 23.6428 23.657
23.6096 23.6225 23.6205 23.6316 23.6506 23.6608
23.6028 23.6138 23.6307 23.6408 23.7231 23.737
23.7396 23.7538 23.7224 23.7364 23.7386 23.753
23.7554 23.7699 23.7728 23.7877 23.7543 23.7689
23.7715 23.7865 23.7218 23.7359 23.7378 23.7522
23.7211 23.7352 23.7368 23.7513 23.7533 23.768
23.7704 23.7854 23.7521 23.7668 23.7691 23.7842
23.7909 23.8062 23.8065 23.8221 23.7894 23.8048
23.8047 23.8205 23.8191 23.835 23.8276 23.8439
23.817 23.833 23.8251 23.8415 23.7883 23.8036
23.8033 23.819 23.7871 23.8025 23.8017 23.8175
23.8152 23.8312 23.823 23.8394 23.8131 23.8292
23.8206 23.8369 23.7202 23.7344 23.7355 23.7501
23.7199 23.7342 23.7346 23.7493 23.7504 23.7653
23.7673 23.7825 23.749 23.7639 23.7651 23.7803
23.7196 23.734 23.7338 23.7486 23.7189 23.7334
23.7324 23.7472 23.7477 23.7627 23.7632 23.7785
23.7455 23.7605 23.7599 23.7753 23.7846 23.8001
23.798 23.8139 23.7809 23.7965 23.7934 23.8093
23.8086 23.8248 23.8155 23.832 23.8033 23.8195
23.8096 23.8261 23.7781 23.7938 23.79 23.8059
23.7733 23.789 23.7843 23.8003 23.7995 23.8157
23.8055 23.8219 23.7931 23.8094 23.7987 23.8152
23.8318 23.8483 23.8306 23.8472 23.8289 23.8454
23.8272 23.844 23.8236 23.8403 23.81 23.8268
23.8197 23.8365 23.8054 23.8222 23.8264 23.843
23.8244 23.8411 23.8236 23.8402 23.8211 23.8379
23.8164 23.8332 23.8014 23.8183 23.8127 23.8295
23.7969 23.8138 23.7884 23.8051 23.757 23.7734
23.7824 23.7991 23.7497 23.7662 23.7181 23.7341
23.6732 23.6886 23.7095 23.7255 23.6631 23.6785
23.7774 23.7942 23.7439 23.7604 23.7717 23.7884
23.7376 23.7541 23.7029 23.7189 23.6554 23.6709
23.6959 23.7119 23.6475 23.663 23.818 23.8347
23.8151 23.8319 23.8117 23.8284 23.8085 23.8253
23.806 23.8229 23.7892 23.8062 23.7991 23.816
23.7822 23.7991 23.8073 23.824 23.8038 23.8207
23.8001 23.8168 23.7964 23.8133 23.7943 23.8112
23.7773 23.7943 23.7867 23.8036 23.7697 23.7867
23.7637 23.7805 23.7296 23.7462 23.7569 23.7738
23.7229 23.7396 23.6874 23.7035 23.6382 23.6538
23.6805 23.6967 23.6309 23.6465 23.7522 23.7691
23.7183 23.7349 23.7447 23.7616 23.7109 23.7276
23.6758 23.692 23.626 23.6417 23.6684 23.6846
23.6185 23.6342 23.7177 23.7324 23.73 23.745
23.7154 23.7301 23.7268 23.7418 23.742 23.7572
23.755 23.7705 23.7381 23.7533 23.7504 23.766
23.7126 23.7274 23.7233 23.7384 23.7085 23.7234
23.7183 23.7335 23.734 23.7493 23.7457 23.7612
23.7282 23.7436 23.7391 23.7548 23.7673 23.7831
23.778 23.7941 23.7627 23.7785 23.7732 23.7892
23.7865 23.8027 23.7916 23.8081 23.7813 23.7976
23.7861 23.8026 23.7576 23.7734 23.7677 23.7838
23.7504 23.7663 23.76 23.7761 23.7754 23.7918
23.7799 23.7965 23.7672 23.7836 23.7712 23.7878
23.703 23.7181 23.7118 23.7271 23.697 23.7123
23.7048 23.7202 23.7207 23.7362 23.7306 23.7464
23.7127 23.7283 23.7216 23.7374 23.6902 23.7056
23.6969 23.7125 23.684 23.6995 23.69 23.7056
23.7038 23.7196 23.7117 23.7276 23.6961 23.7119
23.7031 23.7191 23.741 23.7569 23.7497 23.7659
23.7309 23.7469 23.7386 23.7549 23.7562 23.7726
23.7596 23.7762 23.7443 23.7607 23.747 23.7637
23.7198 23.7359 23.7266 23.7429 23.7104 23.7265
23.7163 23.7327 23.7314 23.7479 23.7334 23.7501
23.7204 23.7369 23.7219 23.7385 23.7927 23.8094
23.7887 23.8057 23.787 23.8037 23.7829 23.7998
23.7789 23.796 23.762 23.7791 23.773 23.79
23.7561 23.7732 23.7806 23.7973 23.7763 23.7932
23.7715 23.7883 23.767 23.784 23.7664 23.7834
23.7496 23.7666 23.757 23.774 23.7402 23.7573
23.7373 23.7542 23.7036 23.7204 23.7315 23.7485
23.6981 23.7149 23.6613 23.6777 23.6115 23.6273
23.656 23.6724 23.6063 23.6221 23.7251 23.7421
23.6919 23.7087 23.7159 23.7329 23.683 23.6998
23.65 23.6664 23.6006 23.6165 23.6415 23.658
23.5925 23.6084 23.7594 23.7762 23.7546 23.7715