<VTKFile type="UnstructuredGrid" version="1.0" byte_order="LittleEndian" header_type="UInt64">
<UnstructuredGrid>
<Piece NumberOfPoints="19836" NumberOfCells="12880">
<PointData>
</PointData>
<CellData Scalars="Temperature (C)">
<DataArray type="Float32" Name="Temperature (C)" format="ascii" RangeMin="22.5964" RangeMax="27.5107">
24.2926 24.2985 24.3108 24.3464 24.3242 24.3288
24.3383 24.3706 24.3833 24.4171 24.4066 24.4405
24.2894 24.2938 24.3049 24.3378 24.3191 24.3228
24.3321 24.3622 24.3746 24.4105 24.3982 24.4344
24.483 24.6189 24.5069 24.6457 24.8193 25.0625
24.8444 25.0848 24.4791 24.6152 24.5036 24.6416
24.8128 25.0533 24.8377 25.0755 25.3287 25.6032
25.3482 25.6203 25.8579 26.0619 25.8731 26.0757
25.3173 25.5898 25.3367 25.6069 25.8429 26.0457
25.8581 26.0596 26.2715 26.4979 26.284 26.5089
26.6988 26.8734 26.7087 26.8822 26.2544 26.4798
26.2669 26.4909 26.68 26.854 26.6899 26.8629
27.0346 27.175 27.0425 27.182 27.285 27.3684
27.2913 27.3741 27.0148 27.1548 27.0228 27.1621
27.2647 27.348 27.2712 27.3539 27.4288 27.4662
27.434 27.4709 27.4889 27.502 27.5072 27.4932
27.5059 27.5107 27.4084 27.4458 27.4138 27.4507
27.4686 27.4818 27.487 27.473 27.4858 27.4906
27.5058 27.4953 27.4824 27.5091 27.4985 27.4855
27.4678 27.4428 27.4709 27.4459 27.4858 27.4755
27.4628 27.4892 27.4787 27.4658 27.4484 27.4237
27.4513 27.4265 27.4166 27.3918 27.4198 27.3952
27.3634 27.3313 27.3669 27.3348 27.3977 27.3732
27.4006 27.3761 27.3451 27.3132 27.348 27.316
27.297 27.2634 27.3009 27.2676 27.2314 27.1951
27.2359 27.2002 27.2791 27.2456 27.2821 27.2488
27.2137 27.1775 27.2172 27.1815 27.1596 27.1301
27.1654 27.1367 27.1028 27.0782 27.1102 27.0863
27.142 27.1127 27.1468 27.1182 27.0855 27.0611
27.0919 27.0683 27.0565 27.0381 27.0651 27.0469
27.024 27.0161 27.0332 27.0262 27.0396 27.0214
27.0472 27.029 27.0073 26.9995 27.0153 27.0083
27.0164 27.0262 27.0274 27.0385 27.0473 27.0801
27.0604 27.0937 26.9997 27.0097 27.0096 27.0208
27.0309 27.0638 27.0428 27.0763 27.1242 27.1774
27.1379 27.1905 27.2352 27.2779 27.2465 27.2847
27.1081 27.1614 27.1205 27.1732 27.219 27.2628
27.2291 27.268 24.4129 24.4176 24.4276 24.4566
24.5274 24.5315 24.5414 24.569 24.491 24.5274
24.6055 24.6502 24.7 24.7038 24.7137 24.7415
24.8573 24.8608 24.8701 24.8967 24.7843 24.8406
24.9412 25.0015 24.4064 24.4101 24.4194 24.4471
24.5185 24.5219 24.531 24.5576 24.4822 24.5211
24.5948 24.641 24.689 24.6923 24.7013 24.7282
24.8448 24.8479 24.8564 24.8822 24.7711 24.8279
24.9268 24.9871 24.5957 24.731 24.7287 24.8568
24.9204 25.1495 25.0296 25.2409 24.9272 25.0502
25.0882 25.2043 25.2059 25.3931 25.3457 25.5134
24.5926 24.7271 24.7205 24.8487 24.9138 25.1404
25.0205 25.2302 24.9145 25.0373 25.0737 25.1894
25.1924 25.3788 25.3303 25.4974 24.9824 24.9854
24.9935 25.0173 25.0735 25.0758 25.0824 25.1017
25.0587 25.1163 25.1356 25.1843 25.1158 25.1177
25.1231 25.1384 25.1371 25.1386 25.1432 25.1556
25.1644 25.2029 25.1757 25.2067 24.9689 24.9716
24.9792 25.0023 25.0594 25.0616 25.0678 25.0866
25.0438 25.1012 25.1207 25.1693 25.1016 25.1034
25.1085 25.1235 25.1228 25.1244 25.1286 25.1408
25.1497 25.1882 25.1613 25.1922 25.1968 25.303
25.2529 25.3457 25.4309 25.5823 25.459 25.5956
25.2589 25.339 25.2533 25.3241 25.4403 25.5664
25.417 25.5364 25.1816 25.2874 25.2379 25.3303
25.4148 25.5657 25.4433 25.5794 25.2444 25.3241
25.2392 25.3099 25.4252 25.5509 25.4027 25.5217
25.4017 25.6639 25.4765 25.724 25.9086 26.1052
25.9569 26.145 25.6028 25.8251 25.7015 25.9021
26.0367 26.2094 26.0953 26.2546 25.3905 25.6508
25.4642 25.7101 25.8939 26.0894 25.9417 26.1288
25.5875 25.8089 25.6848 25.8848 26.0197 26.1918
26.0773 26.2363 26.3075 26.5264 26.3391 26.55
26.7211 26.8904 26.7384 26.9026 26.3893 26.5869
26.422 26.6083 26.7652 26.922 26.7782 26.9292
26.2909 26.509 26.3222 26.5326 26.7031 26.872
26.7205 26.8845 26.3712 26.5685 26.4034 26.5894
26.7465 26.9033 26.7592 26.9101 25.7532 25.9375
25.7528 25.9252 26.117 26.2668 26.096 26.2403
25.7155 25.8824 25.6808 25.8451 26.0502 26.1933
26.0119 26.1551 25.7361 25.9198 25.7361 25.9081
26.0989 26.2484 26.0784 26.2224 25.6995 25.8659
25.6657 25.8294 26.0331 26.1758 25.9955 26.1383
26.4257 26.6046 26.3948 26.5707 26.7695 26.9177
26.7347 26.8834 26.3474 26.5243 26.3099 26.4881
26.69 26.8412 26.6557 26.8091 26.407 26.5857
26.3765 26.5522 26.7504 26.8985 26.7158 26.8644
26.3296 26.506 26.2926 26.4703 26.6714 26.8224
26.6375 26.7905 25.1603 25.1613 25.1644 25.1725
25.1702 25.1708 25.1729 25.1772 25.1836 25.2022
25.1798 25.1865 25.1755 25.1758 25.1771 25.1788
25.1789 25.179 25.1796 25.179 25.1755 25.1738
25.1709 25.1627 25.146 25.1471 25.15 25.1579
25.1559 25.1566 25.1586 25.1628 25.1694 25.1883
25.1659 25.1732 25.1612 25.1617 25.1629 25.1645
25.1645 25.1648 25.1654 25.1648 25.1617 25.1607
25.1572 25.1497 25.2337 25.2899 25.2031 25.245
25.3698 25.4794 25.3125 25.4142 25.1801 25.2118
25.1618 25.1864 25.2707 25.367 25.2396 25.3317
25.2206 25.2769 25.1911 25.2334 25.3569 25.4664
25.3015 25.4031 25.1686 25.2011 25.1503 25.1758
25.2609 25.3571 25.2298 25.3217 25.1844 25.1843
25.1845 25.1921 25.192 25.1921 25.1828 25.1896
25.2009 25.2007 25.2006 25.2095 25.2092 25.209
25.1976 25.2057 25.1722 25.1778 25.1609 25.1652
25.1852 25.1934 25.1724 25.1817 25.218 25.2177
25.2173 25.2139 25.2205 25.22 25.2197 25.2162
25.2023 25.1922 25.2052 25.1964 25.1699 25.1699
25.1702 25.1776 25.1776 25.1777 25.1684 25.1752
25.1862 25.1862 25.1861 25.1947 25.1946 25.1944
25.1832 25.1912 25.1583 25.1639 25.1478 25.1521
25.1712 25.1794 25.1592 25.1683 25.203 25.2029
25.2026 25.1992 25.2053 25.2052 25.2049 25.2015
25.1881 25.1787 25.1909 25.1827 25.1574 25.1611
25.1794 25.1825 25.1691 25.1803 25.1911 25.2039
25.2305 25.2328 25.3202 25.321 25.2416 25.2551
25.3284 25.3406 25.1935 25.2192 25.1993 25.226
25.2712 25.355 25.278 25.3602 25.1457 25.1493
25.1684 25.1713 25.157 25.1679 25.1796 25.1919
25.2202 25.2222 25.3096 25.31 25.2305 25.2433
25.3169 25.3284 25.1807 25.2066 25.1863 25.2132
25.2587 25.3422 25.2652 25.3471 25.6179 25.7798
25.5489 25.7102 25.9466 26.091 25.8782 26.0242
25.4992 25.6597 25.4607 25.6185 25.8279 25.9744
25.7846 25.9294 25.6044 25.7655 25.5372 25.6974
25.9315 26.0752 25.8643 26.0094 25.4884 25.6477
25.4498 25.6064 25.8147 25.9601 25.7713 25.9152
26.2476 26.4288 26.1828 26.3665 26.5996 26.7564
26.5399 26.6992 26.1336 26.3181 26.0871 26.2701
26.4924 26.6529 26.4433 26.603 26.2313 26.4117
26.1673 26.35 26.582 26.7383 26.5227 26.6815
26.1185 26.302 26.072 26.2541 26.4756 26.6355
26.4266 26.5858 25.4461 25.4441 25.6004 25.5949
25.4485 25.4575 25.595 25.5994 25.763 25.7539
25.9051 25.893 25.7495 25.7489 25.8848 25.88
25.4681 25.6046 25.4703 25.6027 25.7482 25.8743
25.742 25.8644 25.4346 25.4323 25.5878 25.5821
25.4362 25.4446 25.5818 25.5856 25.7493 25.74
25.8906 25.8783 25.7353 25.7343 25.8699 25.8648
25.4546 25.5904 25.4565 25.5882 25.7333 25.8588
25.7269 25.8488 26.06 26.0448 26.24 26.2216
26.0327 26.0235 26.2054 26.1914 26.4108 26.3896
26.5685 26.5451 26.3698 26.3516 26.5222 26.5005
26.0126 26.1748 25.9989 26.157 26.3301 26.4748
26.3087 26.4503 26.0447 26.0294 26.2239 26.2055
26.0172 26.0077 26.1892 26.175 26.3941 26.3729
26.5513 26.5279 26.353 26.3347 26.505 26.4832
25.9965 26.1582 25.9827 26.1403 26.3131 26.4574
26.2915 26.4328 27.0469 27.1832 27.0547 27.1873
27.29 27.3709 27.2913 27.37 27.0684 27.197
27.0714 27.1978 27.2985 27.3755 27.2984 27.3756
27.0282 27.1643 27.0364 27.1689 27.271 27.3518
27.2729 27.3516 27.0497 27.1783 27.0524 27.1787
27.2798 27.357 27.2795 27.3567 27.4293 27.4651
27.4267 27.4613 27.4866 27.4986 27.5029 27.4817
27.4929 27.4965 27.431 27.4647 27.4317 27.4663
27.4844 27.4949 27.4981 27.4868 27.498 27.5017
27.4102 27.4461 27.4083 27.4429 27.4675 27.4796
27.4839 27.4634 27.4747 27.4784 27.4125 27.4462
27.413 27.4476 27.466 27.4766 27.4798 27.4682
27.4795 27.4833 27.0587 27.1853 27.0262 27.1558
27.2873 27.3665 27.2614 27.3444 26.9872 27.1206
26.9576 27.0936 27.23 27.3167 27.2058 27.2952
27.0395 27.1661 27.0071 27.1367 27.2682 27.3474
27.2423 27.3252 26.9682 27.1014 26.9387 27.0746
27.2107 27.2974 27.1867 27.276 27.4249 27.4616
27.4066 27.4467 27.4841 27.4971 27.5023 27.4721
27.488 27.4955 27.3826 27.4259 27.3637 27.4093
27.4541 27.4727 27.4826 27.4394 27.4599 27.4715
27.4059 27.4427 27.3875 27.4276 27.4652 27.4784
27.4836 27.453 27.469 27.4766 27.3633 27.4067
27.3445 27.39 27.4349 27.4535 27.4634 27.4202
27.4407 27.4523 27.501 27.4901 27.4769 27.4941
27.4826 27.4692 27.4623 27.4372 27.4541 27.4287
27.4951 27.483 27.4689 27.4989 27.4871 27.4729
27.4533 27.4269 27.457 27.4304 27.4822 27.4714
27.4583 27.476 27.4647 27.4513 27.4437 27.4188
27.4364 27.4111 27.4769 27.465 27.451 27.4807
27.4689 27.4548 27.4354 27.4091 27.4389 27.4123
27.4111 27.3865 27.4022 27.3773 27.3584 27.3266
27.3491 27.3176 27.3997 27.3745 27.4033 27.3785
27.3463 27.3153 27.3509 27.3207 27.3928 27.3683
27.3846 27.3598 27.3402 27.3084 27.3315 27.3
27.3819 27.3567 27.3852 27.3604 27.3285 27.2975
27.3328 27.3026 27.5008 27.4902 27.4768 27.4965
27.4884 27.4766 27.4615 27.436 27.463 27.4397
27.486 27.4806 27.4707 27.4768 27.4734 27.465
27.459 27.4381 27.4547 27.4355 27.4822 27.4717
27.4583 27.4775 27.4695 27.4577 27.443 27.4175
27.4442 27.4208 27.4669 27.4615 27.4516 27.4576
27.4542 27.4458 27.4399 27.419 27.4355 27.4164
27.4099 27.386 27.4155 27.3932 27.3596 27.3306
27.3684 27.3409 27.4158 27.3951 27.4148 27.3952
27.3719 27.346 27.3732 27.3485 27.3915 27.3676
27.3967 27.3744 27.3411 27.3121 27.3496 27.3222
27.3968 27.3761 27.3956 27.3761 27.3529 27.327
27.3541 27.3294 26.9088 27.0491 26.8545 26.9979
27.1654 27.2588 27.1174 27.214 26.8095 26.9546
26.7592 26.9045 27.076 27.1747 27.0265 27.1264
26.8904 27.0303 26.8363 26.9794 27.1464 27.2397
27.0986 27.1951 26.7916 26.9363 26.7416 26.8865
27.0574 27.1559 27.0082 27.1079 27.3313 27.3803
27.2897 27.3417 27.4134 27.4367 27.451 27.3774
27.4033 27.4202 27.2526 27.3065 27.2058 27.2613
27.3441 27.3719 27.3906 27.3004 27.3296 27.3498
27.3121 27.361 27.2706 27.3225 27.3941 27.4175
27.4317 27.3582 27.3841 27.4008 27.2336 27.2875
27.187 27.2424 27.325 27.3527 27.3713 27.2814
27.3106 27.3307 26.7231 26.6976 26.8672 26.8402
26.672 26.6471 26.8123 26.7848 26.9887 26.9605
27.0885 27.0597 26.931 26.9015 27.029 26.998
26.6177 26.7522 26.5905 26.7227 26.8664 26.9611
26.8353 26.9288 26.7055 26.6801 26.8493 26.8223
26.6545 26.6296 26.7945 26.767 26.9704 26.9425
27.07 27.0415 26.9131 26.8835 27.0109 26.9799
26.6001 26.7343 26.5728 26.7048 26.8485 26.9431
26.8172 26.9106 27.1681 27.1391 27.2242 27.1953
27.1078 27.0757 27.1636 27.1308 27.264 27.2352
27.2938 27.3141 27.2653 27.286 27.2034 27.1703
27.2335 27.2545 27.2003 27.2214 27.0375 27.0918
27.0042 27.0581 27.1307 27.1605 27.1815 27.0967
27.1263 27.1473 27.1495 27.1207 27.2054 27.1767
27.0895 27.0575 27.1452 27.1126 27.2451 27.2166
27.2749 27.2951 27.2466 27.2673 27.1849 27.1519
27.215 27.236 27.1819 27.203 27.0193 27.0736
26.986 27.0397 27.1124 27.1422 27.1632 27.0783
27.1079 27.129 27.4593 27.4591 27.4531 27.4314
27.4348 27.4313 27.4452 27.4289 27.426 27.4129
27.4042 27.4105 27.4093 27.3659 27.3756 27.3769
27.4061 27.3958 27.3761 27.3689 27.4399 27.4398
27.4337 27.412 27.4154 27.4119 27.4258 27.4095
27.4065 27.3935 27.3849 27.3911 27.3898 27.3467
27.3563 27.3575 27.3866 27.3763 27.3567 27.3495
27.4106 27.393 27.3972 27.3818 27.3728 27.35
27.3638 27.343 27.3823 27.3687 27.3579 27.3464
27.3525 27.3335 27.3322 27.3152 27.3912 27.3736
27.3778 27.3623 27.3535 27.3307 27.3443 27.3236
27.3628 27.3492 27.3385 27.3269 27.333 27.314
27.3128 27.2958 27.332 27.3049 27.3449 27.3482
27.3199 27.3246 27.2742 27.2415 27.2907 27.2966
27.2589 27.2657 27.3493 27.3271 27.3445 27.3242
27.3004 27.2704 27.2991 27.2703 27.2019 27.2199
27.2273 27.1678 27.1861 27.1939 27.2327 27.2337
27.1996 27.201 27.3128 27.286 27.3257 27.3288
27.3009 27.3055 27.2555 27.2229 27.2719 27.2777
27.2403 27.247 27.3299 27.308 27.3251 27.305
27.2815 27.2517 27.2801 27.2516 27.1834 27.2015
27.2089 27.1494 27.1677 27.1754 27.2142 27.2152
27.1811 27.1825 27.3356 27.3168 27.3256 27.3081
27.2931 27.2655 27.2856 27.2589 27.3131 27.2969
27.2977 27.2827 27.2756 27.2498 27.2626 27.2378
27.2297 27.2239 27.1975 27.192 27.2156 27.2043
27.184 27.173 27.3161 27.2976 27.3061 27.2889
27.2741 27.2467 27.2666 27.2401 27.2936 27.2776
27.2782 27.2635 27.2565 27.231 27.2435 27.2189
27.2112 27.2053 27.1789 27.1735 27.197 27.1857
27.1655 27.1545 25.2205 25.2201 25.2196 25.2161
25.218 25.2175 25.2169 25.2131 25.2053 25.1972
25.2025 25.1948 25.2077 25.2072 25.2066 25.2025
25.1979 25.1974 25.1967 25.1924 25.1917 25.1838
25.1813 25.1731 25.2053 25.2052 25.2049 25.2014
25.2028 25.2026 25.2021 25.1985 25.1911 25.1835
25.1883 25.1811 25.1925 25.1923 25.1917 25.1879
25.1827 25.1824 25.1819 25.1778 25.1775 25.1701
25.1671 25.1595 25.2008 25.2278 25.1988 25.2258
25.2794 25.3605 25.2765 25.3557 25.1873 25.2135
25.1762 25.2017 25.2628 25.3401 25.2499 25.326
25.1877 25.2149 25.1858 25.2129 25.2666 25.3473
25.2637 25.3426 25.1743 25.2007 25.1632 25.1889
25.2501 25.3271 25.2373 25.3131 25.1852 25.1847
25.1839 25.1793 25.1648 25.1642 25.1633 25.1582
25.1678 25.1593 25.1461 25.1369 25.1297 25.1291
25.1279 25.1222 25.0842 25.0835 25.0821 25.0756
25.1089 25.0983 25.0605 25.0478 25.17 25.1698
25.1691 25.1647 25.1496 25.1493 25.1485 25.1437
25.1537 25.1456 25.132 25.1233 25.1146 25.1142
25.1132 25.1077 25.0692 25.0688 25.0675 25.0612
25.0949 25.0848 25.0466 25.0344 25.1617 25.1865
25.1386 25.1624 25.2338 25.3087 25.2086 25.2819
25.0985 25.1207 25.0454 25.0651 25.1653 25.2368
25.1074 25.1768 25.1488 25.1738 25.1257 25.1496
25.2213 25.2958 25.196 25.269 25.0857 25.108
25.0327 25.0525 25.1527 25.2239 25.095 25.1641
25.4687 25.5987 25.4612 25.5879 25.7354 25.8557
25.7214 25.839 25.4433 25.5675 25.4277 25.5502
25.6985 25.814 25.6796 25.7938 25.4549 25.5842
25.4475 25.5736 25.7203 25.8401 25.7064 25.8235
25.4298 25.5533 25.4142 25.5361 25.6836 25.7986
25.6648 25.7785 25.9879 26.1436 25.9684 26.121
26.2932 26.4331 26.2679 26.4055 25.9412 26.0916
25.9197 26.0687 26.2366 26.3728 26.2126 26.3479
25.9718 26.127 25.9524 26.1045 26.2762 26.4157
26.251 26.3883 25.9254 26.0752 25.904 26.0524
26.2198 26.3556 26.1959 26.3308 25.4089 25.5299
25.3804 25.4995 25.6578 25.7708 25.6256 25.7372
25.3333 25.4505 25.2717 25.3876 25.575 25.6854
25.5114 25.6215 25.3955 25.5159 25.367 25.4855
25.6431 25.7556 25.611 25.7221 25.3199 25.4366
25.2585 25.3739 25.5605 25.6704 25.497 25.6067
25.8955 26.0433 25.8606 26.007 26.1862 26.3209
26.1489 26.2829 25.8077 25.9532 25.7437 25.8894
26.0946 26.2285 26.0313 26.1659 25.8799 26.0271
25.845 25.9909 26.1696 26.3039 26.1324 26.266
25.7922 25.9373 25.7284 25.8737 26.0782 26.2117
26.0151 26.1494 25.0298 25.029 25.0274 25.0198
24.9834 24.9826 24.9808 24.9724 25.0023 24.9864
24.9528 24.9339 24.9519 24.951 24.949 24.9401
24.904 24.9031 24.9009 24.891 24.919 24.8982
24.868 24.8443 25.0149 25.0144 25.0129 25.0056
24.9686 24.968 24.9663 24.9583 24.9886 24.9732
24.9392 24.9209 24.9371 24.9365 24.9347 24.9261
24.8893 24.8887 24.8866 24.8771 24.9056 24.8854
24.8546 24.8317 24.9803 24.9963 24.9243 24.9367
25.0355 25.1025 24.9729 25.038 24.8861 24.896
24.8286 24.8349 24.9301 24.994 24.8658 24.928
24.9679 24.984 24.9121 24.9248 25.0234 25.0902
24.9612 25.0261 24.8741 24.8844 24.817 24.8237
24.9188 24.9825 24.8552 24.9172 24.8531 24.8521
24.8497 24.8394 24.8012 24.8002 24.7977 24.7869
24.8149 24.7895 24.7618 24.7355 24.7302 24.7291
24.7266 24.7157 24.6566 24.6556 24.653 24.642
24.6905 24.6647 24.617 24.5919 24.8385 24.8377
24.8356 24.8255 24.7867 24.7859 24.7836 24.7731
24.8017 24.7771 24.7485 24.723 24.7157 24.7149
24.7125 24.7019 24.6422 24.6414 24.639 24.6283
24.6773 24.6523 24.6039 24.5795 24.7715 24.7756
24.7167 24.72 24.8047 24.8663 24.7488 24.8107
24.6471 24.652 24.5759 24.5829 24.6826 24.7458
24.6155 24.6803 24.7602 24.7649 24.7053 24.7092
24.7946 24.8561 24.7386 24.8003 24.6356 24.641
24.5643 24.5717 24.672 24.7351 24.6047 24.6693
25.196 25.3116 25.1308 25.2468 25.4356 25.5464
25.3719 25.4839 25.0865 25.2029 25.0203 25.1376
25.3289 25.4418 25.2653 25.3797 25.1832 25.2982
25.1185 25.2338 25.4217 25.532 25.3583 25.4698
25.0745 25.1903 25.0091 25.1257 25.3157 25.4281
25.2526 25.3664 25.6695 25.8167 25.6085 25.7574
25.9602 26.0965 25.9027 26.0408 25.5675 25.7178
25.5071 25.6593 25.8644 26.0036 25.8077 25.9486
25.6546 25.8013 25.5938 25.7423 25.9443 26.0803
25.8871 26.0247 25.5532 25.7029 25.4932 25.6448
25.8489 25.9878 25.7926 25.9331 24.959 25.0775
24.904 25.0231 25.2064 25.3219 25.1526 25.2687
24.8398 24.9592 24.7752 24.8951 25.0888 25.2047
25.025 25.1413 24.9483 25.066 24.893 25.0114
25.1941 25.3089 25.1402 25.2556 24.8285 24.9472
24.7637 24.8829 25.076 25.1914 25.0121 25.1279
25.4504 25.6038 25.3976 25.5515 25.7533 25.8953
25.7016 25.8442 25.3336 25.4876 25.2705 25.4251
25.6378 25.7807 25.576 25.7196 25.4368 25.5895
25.3839 25.5372 25.7384 25.88 25.6867 25.8289
25.3198 25.4732 25.2566 25.4107 25.623 25.7655
25.5611 25.7044 26.5717 26.7027 26.5423 26.6718
26.8144 26.9072 26.7826 26.8749 26.5084 26.6371
26.4829 26.6113 26.7475 26.8398 26.7216 26.8141
26.5541 26.6849 26.5248 26.6541 26.7964 26.8892
26.7647 26.8568 26.4909 26.6194 26.4655 26.5936
26.7296 26.8217 26.7038 26.7961 26.9823 27.0359
26.9497 27.0032 27.0745 27.1041 27.1252 27.0418
27.0716 27.093 26.9148 26.9688 26.8895 26.9439
27.0078 27.0381 27.06 26.9834 27.0142 27.0366
26.9642 27.0177 26.9315 26.985 27.0562 27.0858
27.1069 27.0236 27.0533 27.0747 26.8966 26.9505
26.8714 26.9257 26.9895 27.0198 27.0417 26.9651
26.9959 27.0184 26.4554 26.5836 26.4171 26.5454
26.6941 26.787 26.6564 26.7499 26.3629 26.492
26.3015 26.432 26.604 26.699 26.5458 26.6426
26.4381 26.5661 26.3999 26.528 26.6764 26.7691
26.6387 26.7321 26.3459 26.4747 26.2847 26.4149
26.5865 26.6813 26.5285 26.6251 26.8629 26.9179
26.8269 26.8829 26.9581 26.9895 27.0126 26.924
26.9564 26.9805 26.7775 26.8351 26.7232 26.7827
26.8777 26.9117 26.9373 26.827 26.8628 26.89
26.8449 26.8998 26.8089 26.8649 26.9399 26.9713
26.9944 26.9059 26.9383 26.9624 26.7597 26.8172
26.7055 26.7649 26.8598 26.8937 26.9193 26.8092
26.8449 26.8722 27.1458 27.1644 27.1723 27.1139
27.1328 27.1411 27.1782 27.1799 27.1472 27.1492
27.0816 27.1011 27.1098 27.0587 27.0788 27.0879
27.1164 27.1188 27.0948 27.0977 27.1275 27.146
27.1539 27.0956 27.1145 27.1228 27.1599 27.1615
27.129 27.1309 27.0632 27.0828 27.0914 27.0404
27.0605 27.0696 27.0981 27.1005 27.0766 27.0794
27.1765 27.1711 27.1461 27.141 27.1633 27.1525
27.1333 27.1227 27.116 27.1111 27.0951 27.0904
27.1036 27.0932 27.0832 27.0729 27.1581 27.1528
27.1278 27.1227 27.1449 27.1341 27.115 27.1044
27.0977 27.0928 27.0769 27.0722 27.0853 27.0749
27.0649 27.0547 27.0354 27.0562 27.0658 27.0043
27.0263 27.0367 27.0732 27.0766 27.0448 27.049
26.9627 26.9865 26.998 26.9174 26.9431 26.956
27.0073 27.0128 26.9666 26.9738 27.0171 27.038
27.0475 26.9861 27.0082 27.0185 27.055 27.0583
27.0266 27.0308 26.9446 26.9684 26.9799 26.8994
26.9251 26.938 26.9892 26.9947 26.9486 26.9558
27.0744 27.07 27.0475 27.0436 27.063 27.053
27.037 27.0275 27.0124 27.0093 26.9747 26.9726
27.0035 26.9947 26.9678 26.96 27.0562 27.0518
27.0294 27.0254 27.0448 27.0348 27.0189 27.0093
26.9943 26.9912 26.9566 26.9546 26.9854 26.9766
26.9498 26.942 26.234 26.3667 26.1801 26.3146
26.4826 26.5817 26.4324 26.5333 26.1441 26.28
26.0909 26.2285 26.3989 26.501 26.3491 26.4529
26.2174 26.3498 26.1637 26.2979 26.4655 26.5644
26.4154 26.5161 26.1279 26.2634 26.0749 26.2122
26.3821 26.484 26.3325 26.436 26.6645 26.7261
26.6179 26.6812 26.7724 26.8101 26.8392 26.7288
26.768 26.7985 26.5868 26.651 26.5403 26.606
26.6997 26.7397 26.7712 26.656 26.6974 26.7301
26.647 26.7085 26.6005 26.6636 26.7547 26.7923
26.8214 26.7113 26.7503 26.7808 26.5696 26.6337
26.5233 26.5889 26.6822 26.7222 26.7536 26.6388
26.6801 26.7127 26.0387 26.1775 25.9882 26.1277
26.2994 26.4044 26.2505 26.3564 25.9252 26.0653
25.8648 26.0059 26.1888 26.2955 26.1302 26.2377
26.023 26.1614 25.9725 26.1117 26.283 26.3877
26.2342 26.3399 25.9096 26.0494 25.8493 25.9901
26.1727 26.2792 26.1142 26.2215 26.4931 26.56
26.4461 26.5141 26.6111 26.6535 26.6874 26.5661
26.6095 26.6443 26.3862 26.455 26.3291 26.3987
26.5078 26.5521 26.5878 26.4521 26.4971 26.5335
26.4762 26.543 26.4294 26.4972 26.5939 26.6363
26.6701 26.5491 26.5925 26.6272 26.3696 26.4383
26.3128 26.3822 26.4911 26.5353 26.571 26.4355
26.4805 26.5168 26.8685 26.8963 26.9107 26.8293
26.8587 26.8743 26.9228 26.9318 26.8875 26.898
26.803 26.8335 26.8498 26.7633 26.7954 26.8129
26.8638 26.8752 26.8279 26.8408 26.8506 26.8784
26.8928 26.8115 26.8409 26.8564 26.9049 26.9139
26.8696 26.8801 26.7853 26.8158 26.8321 26.7458
26.7778 26.7953 26.846 26.8574 26.8103 26.8232
26.9342 26.9333 26.9015 26.9016 26.9297 26.9231
26.899 26.8933 26.8795 26.8803 26.8464 26.8481
26.8784 26.8733 26.8472 26.8432 26.9162 26.9153
26.8836 26.8837 26.9118 26.9051 26.8811 26.8754
26.8617 26.8625 26.8287 26.8304 26.8606 26.8555
26.8295 26.8254 26.7218 26.7552 26.7737 26.6798
26.7145 26.7339 26.7898 26.8041 26.751 26.7665
26.6245 26.6604 26.6809 26.5709 26.6077 26.6288
26.6989 26.7158 26.6476 26.6654 26.7044 26.7378
26.7562 26.6626 26.6972 26.7166 26.7723 26.7865
26.7337 26.7491 26.6074 26.6433 26.6637 26.554
26.5908 26.6119 26.6817 26.6985 26.6306 26.6483
26.8108 26.8135 26.7743 26.7779 26.8136 26.8105
26.779 26.7769 26.7247 26.7294 26.6753 26.6807
26.7315 26.7305 26.6836 26.6835 26.7931 26.7959
26.7568 26.7605 26.7959 26.7929 26.7615 26.7594
26.7075 26.7121 26.6581 26.6635 26.7142 26.7132
26.6664 26.6663 27.2933 27.2608 27.2849 27.2534
27.2301 27.1956 27.2237 27.1903 27.2835 27.2528
27.2897 27.26 27.224 27.1918 27.2321 27.2008
27.275 27.2425 27.2673 27.2357 27.2118 27.1774
27.206 27.1727 27.2656 27.235 27.2717 27.242
27.2062 27.1741 27.2141 27.1829 27.1623 27.135
27.1584 27.1324 27.1098 27.0869 27.1083 27.0863
27.1611 27.136 27.1709 27.1465 27.1127 27.0914
27.1236 27.1027 27.1441 27.1168 27.1407 27.1148
27.0918 27.0691 27.0907 27.0688 27.1433 27.1184
27.153 27.1287 27.0951 27.0738 27.1058 27.085
27.3007 27.2721 27.3127 27.2853 27.2451 27.2147
27.2594 27.2301 27.3192 27.2931 27.3227 27.2975
27.2682 27.24 27.2734 27.246 27.2824 27.2537
27.2939 27.2666 27.2267 27.1964 27.2408 27.2116
27.3002 27.2742 27.3037 27.2785 27.2494 27.2213
27.2545 27.2272 27.1856 27.1617 27.202 27.1787
27.1391 27.1185 27.1565 27.1361 27.2128 27.1902
27.2195 27.1975 27.1684 27.1482 27.176 27.156
27.1674 27.1436 27.1835 27.1603 27.1211 27.1005
27.1382 27.1178 27.1941 27.1716 27.2008 27.1788
27.1499 27.1298 27.1574 27.1375 27.0666 27.0494
27.0668 27.051 27.0372 27.0318 27.0404 27.0367
27.0728 27.0583 27.0847 27.0708 27.0491 27.0468
27.0623 27.0606 27.0488 27.0316 27.0493 27.0335
27.0194 27.014 27.0229 27.0192 27.0553 27.0408
27.067 27.0532 27.0316 27.0294 27.0447 27.0431
27.0348 27.0474 27.0413 27.0554 27.0706 27.1049
27.08 27.1154 27.0527 27.0681 27.0671 27.083
27.0938 27.1302 27.1091 27.1461 27.017 27.0296
27.0238 27.038 27.053 27.0874 27.0627 27.0981
27.0353 27.0507 27.0496 27.0655 27.0765 27.113
27.0918 27.1288 27.1007 27.087 27.1185 27.1047
27.0787 27.0771 27.0962 27.0944 27.1307 27.1168
27.1385 27.1247 27.1081 27.1059 27.1158 27.1133
27.0828 27.0692 27.1003 27.0866 27.0609 27.0594
27.0782 27.0764 27.1123 27.0985 27.1201 27.1063
27.0899 27.0877 27.0975 27.0951 27.0836 27.0994
27.1004 27.1158 27.1255 27.1626 27.1415 27.1784
27.1115 27.1263 27.1185 27.1329 27.1515 27.188
27.1577 27.1939 27.0659 27.0818 27.0825 27.098
27.108 27.1452 27.1238 27.1608 27.0934 27.1084
27.1004 27.115 27.1337 27.1703 27.1399 27.1762
27.3259 27.3023 27.3209 27.2989 27.2795 27.2534
27.2776 27.2532 27.313 27.2924 27.2965 27.2775
27.2724 27.2495 27.259 27.2379 27.3067 27.283
27.3015 27.2795 27.2603 27.2343 27.2583 27.234
27.2935 27.273 27.2771 27.2582 27.2531 27.2302
27.2397 27.2186 27.2282 27.2071 27.2298 27.2099
27.1863 27.1666 27.19 27.1709 27.228 27.2094
27.2197 27.2026 27.1902 27.1717 27.1844 27.1665
27.2091 27.1881 27.2106 27.1909 27.1674 27.1479
27.171 27.152 27.2087 27.1902 27.2003 27.1834
27.1711 27.1526 27.1652 27.1473 27.2804 27.2666
27.2626 27.2497 27.2475 27.2235 27.2314 27.208
27.2451 27.2328 27.2249 27.213 27.2151 27.192
27.1954 27.1723 27.1907 27.1757 27.1597 27.145
27.1599 27.14 27.1294 27.1094 27.2609 27.2473
27.2431 27.2304 27.2284 27.2046 27.2123 27.1891
27.2256 27.2135 27.2055 27.1937 27.1959 27.173
27.1763 27.1534 27.172 27.157 27.1412 27.1264
27.1412 27.1213 27.1108 27.0908 27.2077 27.1945
27.1912 27.1781 27.1762 27.1524 27.1597 27.1355
27.1736 27.1608 27.1561 27.1437 27.1425 27.1182
27.1257 27.1016 27.1186 27.1007 27.0843 27.0649
27.0831 27.0664 27.0465 27.0295 27.1883 27.1752
27.172 27.1589 27.157 27.1334 27.1406 27.1165
27.1544 27.1416 27.137 27.1246 27.1234 27.0993
27.1067 27.0827 27.0998 27.082 27.0657 27.0463
27.0643 27.0477 27.028 27.0109 27.1493 27.1354
27.1539 27.1401 27.1263 27.1234 27.1308 27.1276
27.1549 27.1412 27.1501 27.1367 27.132 27.1285
27.1275 27.1239 27.1306 27.1168 27.135 27.1213
27.1078 27.105 27.1122 27.1091 27.136 27.1224
27.1311 27.1177 27.1132 27.1099 27.1086 27.1052
27.1281 27.1419 27.1319 27.1451 27.1661 27.2017
27.1686 27.2036 27.1325 27.1452 27.1276 27.1399
27.1682 27.2027 27.1624 27.1962 27.1098 27.1238
27.1135 27.1268 27.1481 27.1838 27.1505 27.1856
27.114 27.1269 27.109 27.1214 27.15 27.1846
27.144 27.178 27.1402 27.1281 27.127 27.1151
27.1104 27.0865 27.0978 27.0741 27.1179 27.1062
27.1144 27.1027 27.089 27.0656 27.0856 27.0623
27.0514 27.0392 27.0143 27.0019 27.0308 27.0275
26.9934 26.99 27.1211 27.109 27.108 27.0962
27.0914 27.0676 27.0788 27.0553 27.099 27.0873
27.0956 27.0839 27.0702 27.0468 27.0669 27.0436
27.0327 27.0205 26.9958 26.9835 27.0122 27.009
26.975 26.9716 27.1179 27.1061 27.1299 27.118
27.089 27.0656 27.1007 27.0772 27.152 27.1397
27.1854 27.1728 27.1222 27.0984 27.1548 27.1307
27.0308 27.0422 26.9931 27.0042 27.0631 27.095
27.0247 27.0561 27.0992 27.0875 27.1114 27.0995
27.0704 27.0471 27.0822 27.0588 27.1336 27.1214
27.1671 27.1545 27.1038 27.0801 27.1366 27.1126
27.0124 27.0239 26.9748 26.986 27.0449 27.0769
27.0067 27.0382 27.1497 27.2026 27.161 27.2146
27.2589 27.2985 27.272 27.3129 27.1769 27.2322
27.1937 27.2504 27.2922 27.3364 27.313 27.3599
27.1323 27.1852 27.1437 27.1974 27.2412 27.2802
27.2544 27.2943 27.1597 27.2149 27.1764 27.2331
27.2745 27.3176 27.2953 27.3411 27.2108 27.2688
27.2267 27.2856 27.3336 27.3828 27.3521 27.4032
27.2362 27.2953 27.242 27.3011 27.3626 27.4147
27.3688 27.4213 27.1934 27.2513 27.2092 27.268
27.3157 27.3639 27.334 27.3841 27.2186 27.2776
27.2243 27.2834 27.3445 27.3956 27.3506 27.4022
27.2494 27.3084 27.2507 27.3095 27.3763 27.4293
27.3774 27.4307 27.2493 27.3077 27.2422 27.3002
27.3755 27.4289 27.3677 27.4212 27.2315 27.2905
27.2328 27.2915 27.358 27.4101 27.359 27.4113
27.2313 27.2896 27.2241 27.282 27.357 27.4095
27.3492 27.4017 27.2309 27.2179 27.2884 27.275
27.1995 27.175 27.2563 27.2313 27.3556 27.342
27.4092 27.3956 27.323 27.2978 27.3766 27.3513
27.1388 27.1946 27.0994 27.1547 27.2606 27.3139
27.2201 27.2731 27.2127 27.1997 27.2702 27.2568
27.1814 27.1569 27.2381 27.2133 27.3371 27.3235
27.3898 27.3762 27.3045 27.2794 27.3573 27.3321
27.1208 27.1766 27.0816 27.1368 27.2423 27.2947
27.2019 27.254 27.1394 27.1248 27.1097 27.0955
27.1095 27.0902 27.0807 27.0626 27.0805 27.0665
27.0604 27.0467 27.0522 27.0348 27.0326 27.0155
27.1209 27.1064 27.0914 27.0772 27.0911 27.0718
27.0624 27.0443 27.0622 27.0483 27.0422 27.0285
27.0339 27.0165 27.0144 26.9974 27.0651 27.0447
27.0407 27.0201 27.0259 27.0086 27.0009 26.9831
27.0141 26.9937 26.9953 26.975 26.9741 26.9559
26.9553 26.9368 27.0466 27.0261 27.0224 27.0018
27.0073 26.99 26.9826 26.9648 26.9958 26.9754
26.9772 26.9569 26.9559 26.9377 26.9372 26.9187
27.0407 27.0272 27.0156 27.0025 27.0134 26.9967
26.9889 26.9726 26.9835 26.971 26.9497 26.9379
26.958 26.9421 26.9255 26.9103 27.0226 27.0091
26.9975 26.9844 26.9952 26.9785 26.9708 26.9545
26.9654 26.9529 26.9317 26.9199 26.9399 26.9241
26.9075 26.8923 26.9767 26.9565 26.953 26.9328
26.9366 26.9178 26.9128 26.8936 26.9229 26.9029
26.8916 26.8719 26.8828 26.8633 26.8519 26.8324
26.9586 26.9384 26.9349 26.9148 26.9186 26.8998
26.8948 26.8757 26.9049 26.8849 26.8736 26.854
26.8648 26.8454 26.834 26.8145 26.9932 26.9807
26.9674 26.9545 26.972 26.9684 26.9455 26.9415
26.9397 26.9263 26.9202 26.9064 26.9167 26.9121
26.8963 26.8913 26.9747 26.9622 26.9491 26.9363
26.9536 26.95 26.9273 26.9234 26.9215 26.9081
26.9021 26.8883 26.8986 26.8941 26.8784 26.8734
26.9713 26.9821 26.944 26.9543 27.0024 27.0335
26.9741 27.0045 26.914 26.9236 26.8926 26.9017
26.9426 26.9723 26.9201 26.9491 26.953 26.9639
26.926 26.9364 26.9843 27.0155 26.9563 26.9868
26.896 26.9058 26.8748 26.884 26.9249 26.9547
26.9025 26.9317 26.9009 26.8866 26.8762 26.8613
26.876 26.8704 26.8501 26.8437 26.8454 26.8298
26.8141 26.798 26.8178 26.8106 26.7853 26.7772
26.8829 26.8686 26.8583 26.8435 26.8582 26.8527
26.8323 26.8261 26.8275 26.812 26.7963 26.7803
26.8001 26.7929 26.7677 26.7597 26.8712 26.8796
26.8436 26.8512 26.8974 26.9257 26.868 26.8954
26.8094 26.8159 26.7751 26.7805 26.8314 26.8575
26.7948 26.8195 26.8535 26.8621 26.8261 26.8338
26.8799 26.9084 26.8507 26.8782 26.7919 26.7985
26.7577 26.7632 26.8142 26.8403 26.7776 26.8024
26.9138 26.903 26.885 26.8749 26.8913 26.8769
26.864 26.8502 26.8656 26.8561 26.8364 26.8277
26.8456 26.8324 26.818 26.8055 26.8958 26.885
26.867 26.8569 26.8734 26.8589 26.846 26.8323
26.8478 26.8382 26.8186 26.81 26.8278 26.8145
26.8003 26.7878 26.8589 26.8397 26.8329 26.8142
26.82 26.8005 26.7949 26.7756 26.8155 26.7972
26.7894 26.7718 26.7782 26.7591 26.7533 26.7346
26.841 26.8218 26.815 26.7963 26.8021 26.7827
26.777 26.7578 26.7977 26.7794 26.7717 26.7541
26.7604 26.7414 26.7355 26.7169 26.8047 26.7969
26.772 26.7651 26.788 26.7763 26.7569 26.746
26.7267 26.7208 26.6805 26.6753 26.7135 26.7036
26.6688 26.6597 26.787 26.7792 26.7545 26.7475
26.7703 26.7586 26.7393 26.7284 26.7093 26.7033
26.6633 26.6581 26.6961 26.6862 26.6515 26.6424
26.761 26.7441 26.7316 26.7154 26.7261 26.7079
26.6981 26.6804 26.6902 26.6749 26.6471 26.6326